/*--------------------------------*- C++ -*----------------------------------*\
  =========                 |
  \\      /  F ield         | OpenFOAM: The Open Source CFD Toolbox
   \\    /   O peration     | Website:  https://openfoam.org
    \\  /    A nd           | Version:  7
     \\/     M anipulation  |
\*---------------------------------------------------------------------------*/
FoamFile
{
    version     2.0;
    format      ascii;
    class       volScalarField;
    location    "250";
    object      nuTilda;
}
// * * * * * * * * * * * * * * * * * * * * * * * * * * * * * * * * * * * * * //

dimensions      [0 2 -1 0 0 0 0];

internalField   nonuniform List<scalar> 
11372
(
0.0637665
0.0195494
0.104781
0.134842
0.110888
0.0269068
0.126662
0.0498728
0.102154
0.074279
0.131006
0.111488
0.0932274
0.138708
0.124211
0.117657
0.11391
0.121762
0.135713
0.137666
0.0914707
0.14326
0.0198846
0.0137756
0.130357
0.233536
0.176669
0.135245
0.138724
0.138646
0.136218
0.139748
0.102505
0.138261
0.0631912
0.144498
0.139766
0.107467
0.100579
0.117545
0.0547403
0.138913
0.14116
0.108951
0.139984
0.0714362
0.131371
0.227051
0.00633848
0.130469
0.0134775
0.128925
0.0603814
0.105301
0.137967
0.130686
0.10737
0.0127216
0.128131
0.11937
0.077237
0.128621
0.144614
0.0321396
0.215778
0.144034
0.107897
0.19775
0.0734748
0.0729877
0.138808
0.139007
0.140648
0.124825
0.0979143
0.139593
0.163957
0.136533
0.139874
0.0367448
0.232658
0.0223738
0.00272085
0.101298
0.013511
0.0286665
0.141682
0.114134
0.13317
0.0658445
0.141235
0.132181
0.0639721
0.111698
0.139299
0.257832
0.100447
0.258486
0.162123
0.14126
0.140209
0.127841
0.140001
0.137826
0.137589
0.0341571
0.032938
0.139478
0.140771
0.134109
0.136949
0.131574
0.0466084
0.139586
0.247244
0.140404
0.0452303
0.140474
0.138339
0.25329
0.238786
0.0596656
0.254065
0.140182
0.120898
0.138121
0.129574
0.0934023
0.124254
0.0430978
0.0906656
0.113888
0.0114626
0.0973982
0.0999183
0.139354
0.125376
0.243512
0.0206179
0.139663
0.163514
0.139802
0.0844618
0.0797192
0.109722
0.072804
0.155862
0.134258
0.13711
0.0268715
0.1393
0.0625425
0.123213
0.0490028
0.14009
0.141935
0.12311
0.133305
0.253405
0.137033
0.138786
0.137598
0.0457781
0.139627
0.0164677
0.116768
0.0944757
0.146795
0.14
0.142405
0.176963
0.146307
0.0741775
0.0961638
0.109507
0.0575196
0.128189
0.22347
0.0426411
0.139816
0.102351
0.137083
0.0489811
0.0965776
0.181874
0.028958
0.103995
0.0432248
0.129138
0.0163934
0.136761
0.139053
0.128802
0.121199
0.103397
0.116275
0.203221
0.138473
0.0767537
0.117941
0.138889
0.134409
0.136185
0.264329
0.139818
0.13379
0.140963
0.13113
0.128554
0.12589
0.0285284
0.134113
0.108155
0.137609
0.13906
0.0920252
0.138638
0.137387
0.138199
0.112969
0.0757623
0.137904
0.0208678
0.00146583
0.13931
0.093031
0.00138399
0.141496
0.1394
0.133232
0.131399
0.138116
0.10284
0.141074
0.107247
0.0567233
0.0767735
0.249558
0.0962318
0.108683
0.139888
0.0436812
0.114699
0.140789
0.105452
0.136486
0.136831
0.116727
0.136574
0.0523252
0.130307
0.144425
0.0129492
0.109605
0.0328181
0.13542
0.125948
0.140521
0.129471
0.138053
0.0727273
0.139311
0.223915
0.138191
0.0955861
0.11841
0.156615
0.182207
0.00362182
0.121001
0.00269557
0.0835972
0.114485
0.107013
0.107235
0.0817694
0.137947
0.14131
0.133945
0.216456
0.116489
0.131222
0.136103
0.136448
0.0349035
0.141196
0.193723
0.00196076
0.144088
0.216632
0.156116
0.139686
0.178953
0.141021
0.0928283
0.13923
0.135952
0.140174
0.114067
0.0576047
0.14002
0.0750411
0.055691
0.238665
0.136213
0.110639
0.0334914
0.128824
0.140013
0.130558
0.0512694
0.139951
0.262347
0.0189862
0.140674
0.134231
0.155988
0.111154
0.115008
0.030488
0.124329
0.100711
0.106586
0.137419
0.138746
0.0910508
0.0770496
0.119351
0.0944182
0.126699
0.260171
0.138589
0.0869261
0.0577207
0.0755486
0.101194
0.142458
0.0545708
0.133148
0.123379
0.16719
0.158545
0.135301
0.137989
0.141855
0.0973105
0.142534
0.131439
0.122549
0.139976
0.0180043
0.111042
0.131246
0.120281
0.136613
0.0462362
0.11027
0.132061
0.0915758
0.139456
0.143047
0.123789
0.133452
0.167953
0.140646
0.0438946
0.108477
0.0943826
0.125184
0.137258
0.137833
0.114769
0.072049
0.151912
0.116511
0.123677
0.111973
0.138906
0.0341235
0.104029
0.140183
0.138183
0.133093
0.113972
0.136298
0.055544
0.110129
0.128748
0.0891215
0.133732
0.0858012
0.0220553
0.140298
0.129366
0.140729
0.127591
0.143636
0.0139836
0.0639513
0.0780864
0.133748
0.141666
0.113148
0.129471
0.124628
0.142742
0.0651731
0.225393
0.132218
0.131219
0.139962
0.23725
0.137266
0.00992118
0.041028
0.0128502
0.0324888
0.121937
0.140626
0.137502
0.217026
0.142149
0.140218
0.0163853
0.136914
0.14007
0.0174122
0.0997918
0.132066
0.139989
0.138856
0.141207
0.141632
0.00313989
0.242584
0.140726
0.26399
0.137903
0.0185112
0.121585
0.0934319
0.137596
0.140096
0.128804
0.140946
0.135695
0.00277822
0.138637
0.0228452
0.102777
0.141834
0.0795571
0.127184
0.129661
0.103513
0.0903502
0.212881
0.0435574
0.138402
0.131711
0.24084
0.117025
0.0619156
0.1128
0.151504
0.0612698
0.128187
0.0498391
0.249254
0.107793
0.12667
0.126617
0.137971
0.0887985
0.0884531
0.108187
0.101761
0.14307
0.141381
0.161362
0.137695
0.0402902
0.0110464
0.140628
0.141208
0.00510398
0.197214
0.0934164
0.137337
0.140879
0.0316027
0.144456
0.139044
0.14496
0.120745
0.121981
0.126168
0.143085
0.138472
0.139265
0.140169
0.0276336
0.0592159
0.124835
0.134273
0.135246
0.0111417
0.14059
0.0191537
0.11646
0.0696967
0.0760517
0.115715
0.139841
0.140083
0.139894
0.131933
0.110568
0.124917
0.12374
0.0786466
0.140833
0.256618
0.130248
0.128987
0.138349
0.0512475
0.140874
0.0263891
0.124392
0.133273
0.140459
0.135632
0.117338
0.141607
0.18514
0.124285
0.141839
0.0663234
0.137587
0.130291
0.0324596
0.0989809
0.130834
0.118186
0.127526
0.126214
0.121526
0.0601315
0.0406107
0.1409
0.122844
0.0871678
0.13876
0.135795
0.140153
0.0993151
0.140069
0.133495
0.251646
0.139804
0.140315
0.142841
0.0963439
0.246267
0.132967
0.0984821
0.0843535
0.102811
0.26062
0.141446
0.108191
0.140229
0.0133318
0.139392
0.121502
0.0632904
0.014009
0.141046
0.136355
0.229119
0.125733
0.0391355
0.162321
0.10271
0.140325
0.0157986
0.14211
0.00172458
0.141447
0.16729
0.128763
0.25866
0.00915083
0.262908
0.124493
0.114017
0.115017
0.04558
0.0416645
0.110013
0.105824
0.140308
0.00786372
0.104882
0.195825
0.144042
0.262465
0.140816
0.123079
0.0404523
0.141821
0.138187
0.140364
0.0481891
0.0823775
0.0414744
0.117343
0.10092
0.203477
0.0353132
0.0704656
0.12985
0.129979
0.134805
0.136359
0.0827512
0.102759
0.0459406
0.133423
0.0766863
0.139082
0.101842
0.141003
0.089082
0.0825598
0.0340437
0.139998
0.123814
0.127923
0.138845
0.119899
0.145596
0.140842
0.137791
0.141102
0.129641
0.0616191
0.0441866
0.136831
0.138618
0.0832093
0.134069
0.0119186
0.140513
0.136173
0.140022
0.0174733
0.135028
0.015383
0.146483
0.132913
0.134827
0.0294425
0.213583
0.0261907
0.0787
0.094465
0.131079
0.25699
0.0861326
0.0144205
0.138095
0.137938
0.245214
0.245941
0.142333
0.140467
0.134013
0.0658252
0.132394
0.128089
0.112028
0.0452747
0.0479653
0.14176
0.141526
0.0932963
0.127027
0.0675038
0.140113
0.140091
0.140286
0.124568
0.119531
0.106911
0.10872
0.139522
0.100679
0.142387
0.00123484
0.112439
0.0802256
0.0845504
0.132614
0.14043
0.140283
0.140351
0.136141
0.138464
0.0361457
0.0263744
0.140329
0.238321
0.11343
0.135111
0.141479
0.110251
0.120204
0.135684
0.0535508
0.117373
0.123898
0.106412
0.0503059
0.140363
0.141251
0.0950479
0.139704
0.125897
0.0252996
0.140573
0.0784296
0.124136
0.136057
0.0914391
0.107149
0.0993527
0.134614
0.14213
0.118766
0.0371549
0.119941
0.111642
0.091714
0.126748
0.129769
0.0461158
0.201387
0.200667
0.0342594
0.0312595
0.0839818
0.125719
0.0906221
0.138907
0.132158
0.140477
0.195391
0.242233
0.107603
0.0304448
0.0736024
0.137328
0.13879
0.218491
0.137898
0.143538
0.0835499
0.207349
0.00140514
0.140304
0.0644255
0.142372
0.1141
0.13948
0.0324881
0.109406
0.117279
0.140045
0.238497
0.013825
0.133123
0.0204601
0.127721
0.0252917
0.139658
0.0122883
0.0132184
0.0566817
0.127068
0.138323
0.140613
0.126578
0.0556721
0.10136
0.118737
0.0539326
0.135186
0.0844523
0.135636
0.135635
0.129434
0.00785157
0.0190432
0.0992846
0.115968
0.140209
0.0423966
0.110087
0.140155
0.019181
0.102255
0.100969
0.14009
0.137981
0.247113
0.114588
0.139632
0.169809
0.0839828
0.0088757
0.0644851
0.0118867
0.140933
0.117931
0.0143377
0.0709018
0.090426
0.141751
0.020966
0.131754
0.133622
0.127806
0.14088
0.0698404
0.013235
0.0881925
0.121237
0.13286
0.0661209
0.234286
0.268777
0.0869651
0.135437
0.132146
0.093007
0.1246
0.0992687
0.134774
0.0104141
0.105993
0.10777
0.0989961
0.131801
0.0643725
0.128123
0.0650006
0.137055
0.141121
0.0213563
0.114032
0.142427
0.0887866
0.06521
0.132918
0.140111
0.109748
0.143239
0.140138
0.140663
0.0992862
0.257407
0.138515
0.140113
0.0860912
0.129265
0.125994
0.22331
0.11241
0.126704
0.0956556
0.0710413
0.142608
0.138503
0.133771
0.10301
0.13876
0.105327
0.145964
0.138239
0.26895
0.158544
0.141821
0.111303
0.106467
0.139964
0.132764
0.14045
0.115362
0.139998
0.112912
0.14092
0.139946
0.0495402
0.0439108
0.105723
0.0966688
0.140435
0.12745
0.141696
0.140995
0.13429
0.128082
0.105161
0.132016
0.131492
0.104733
0.104506
0.0558691
0.128093
0.134121
0.140825
0.234331
0.137413
0.130886
0.129158
0.0327642
0.121137
0.121559
0.140358
0.120302
0.124104
0.0993488
0.139889
0.0830814
0.0187335
0.144821
0.139863
0.0737446
0.13369
0.135414
0.126246
0.139335
0.133389
0.131207
0.123696
0.139089
0.138956
0.139841
0.128046
0.139125
0.130279
0.070841
0.109725
0.112345
0.0580576
0.131183
0.180458
0.140656
0.138548
0.0360092
0.128279
0.142344
0.14017
0.117661
0.140135
0.118008
0.128392
0.073314
0.105693
0.123148
0.235401
0.143528
0.093248
0.140377
0.140997
0.124694
0.139964
0.0964612
0.0808891
0.141102
0.1265
0.100254
0.114267
0.136262
0.264574
0.139958
0.137072
0.109799
0.103658
0.138112
0.138426
0.134309
0.0792625
0.158906
0.121732
0.120246
0.140594
0.217644
0.108271
0.10435
0.138893
0.135596
0.13549
0.0993125
0.117387
0.140637
0.0601871
0.140083
0.12172
0.0985917
0.141219
0.130006
0.14703
0.0472541
0.109162
0.134515
0.123803
0.111681
0.139993
0.0823057
0.140172
0.105398
0.140067
0.138382
0.0295581
0.242298
0.131729
0.134373
0.131107
0.240948
0.243054
0.138016
0.24713
0.13809
0.113906
0.120799
0.141161
0.129492
0.115597
0.248097
0.135526
0.140281
0.0945603
0.0566826
0.0978787
0.107437
0.0850435
0.141039
0.0752671
0.140977
0.140195
0.128352
0.134187
0.13758
0.11076
0.0395709
0.140246
0.136373
0.116582
0.134516
0.0864813
0.119222
0.139886
0.0393085
0.0486578
0.140002
0.126772
0.0993026
0.266998
0.0614874
0.00156243
0.130766
0.121789
0.10834
0.059947
0.147025
0.094941
0.113322
0.142469
0.0563424
0.130876
0.114233
0.118675
0.132049
0.133274
0.0730344
0.140364
0.132575
0.123579
0.036985
0.131525
0.0444649
0.140128
0.0802412
0.126365
0.0367943
0.0392447
0.136083
0.125821
0.139916
0.0943467
0.108276
0.0624449
0.256908
0.1997
0.266558
0.0668577
0.138862
0.136549
0.0102388
0.0824337
0.00561376
0.0625475
0.128192
0.0943645
0.135296
0.119599
0.140513
0.128593
0.137308
0.243054
0.0286081
0.136748
0.076407
0.144653
0.137095
0.12697
0.0424122
0.104067
0.14356
0.14007
0.142152
0.120589
0.136697
0.133219
0.21647
0.210871
0.140709
0.0173688
0.138728
0.0638995
0.132104
0.240047
0.118588
0.130264
0.142686
0.0703229
0.0151089
0.143077
0.00794423
0.00348846
0.0735366
0.141457
0.145884
0.151171
0.139811
0.138169
0.137351
0.0737482
0.126295
0.140301
0.115757
0.140023
0.140075
0.0216715
0.175632
0.124976
0.140316
0.080109
0.141536
0.122956
0.125371
0.0896966
0.0901196
0.105336
0.129753
0.0940237
0.136589
0.125443
0.143632
0.111739
0.125318
0.129456
0.130436
0.0960133
0.12974
0.132722
0.109854
0.0967871
0.0850299
0.0138436
0.142541
0.133355
0.134413
0.139336
0.0505162
0.0719713
0.140453
0.0212444
0.129527
0.244807
0.0674777
0.0990818
0.102692
0.226937
0.114986
0.0842818
0.140764
0.139466
0.0949984
0.129463
0.058246
0.0385979
0.13887
0.138074
0.14343
0.221556
0.127308
0.0987239
0.0847309
0.0863228
0.13806
0.0836485
0.137125
0.0109931
0.118743
0.0322881
0.0815944
0.142948
0.141189
0.264398
0.139607
0.105641
0.0691662
0.137032
0.224952
0.130439
0.0341454
0.0187202
0.226665
0.0458169
0.140677
0.0537829
0.0688692
0.139338
0.138371
0.00631661
0.137707
0.144002
0.141873
0.0950655
0.137869
0.00131698
0.135567
0.14082
0.131632
0.0798955
0.0915995
0.140001
0.0793987
0.124665
0.120863
0.0421899
0.216057
0.140292
0.0632859
0.0954052
0.0875764
0.109446
0.0947532
0.136812
0.258378
0.139412
0.0168719
0.134654
0.261421
0.116801
0.111337
0.140547
0.0136
0.0971808
0.130907
0.0720352
0.00582059
0.121292
0.131977
0.0654827
0.139134
0.1344
0.141505
0.139972
0.117472
0.0823055
0.138871
0.0946605
0.0862082
0.136273
0.0250161
0.140209
0.105464
0.0981014
0.142021
0.265747
0.136107
0.0756349
0.14025
0.077438
0.229321
0.136655
0.140671
0.140091
0.0886213
0.128228
0.220392
0.133034
0.141057
0.140854
0.137751
0.121514
0.139858
0.114526
0.144542
0.0160323
0.142945
0.141606
0.0151449
0.140193
0.127473
0.134504
0.023415
0.114228
0.0416371
0.102663
0.14279
0.106633
0.114299
0.145356
0.0247267
0.0785309
0.138371
0.106493
0.109048
0.0340134
0.138578
0.0949171
0.0719749
0.13182
0.09356
0.127321
0.14111
0.2347
0.135629
0.08774
0.253111
0.0019614
0.126162
0.141816
0.258291
0.139363
0.018929
0.133429
0.0813704
0.112501
0.139745
0.141067
0.125729
0.133007
0.140343
0.119761
0.261974
0.145971
0.0771608
0.213313
0.0557901
0.138777
0.0603378
0.13456
0.13383
0.0511884
0.136607
0.140142
0.117554
0.0881327
0.140811
0.1169
0.140674
0.111395
0.132205
0.0824226
0.12385
0.10854
0.141013
0.0471662
0.112458
0.0715895
0.134032
0.00255012
0.262034
0.0885105
0.114776
0.135637
0.0567741
0.112933
0.19796
0.0327217
0.022142
0.14018
0.0848489
0.0187691
0.126724
0.134048
0.259093
0.119143
0.0368687
0.00977783
0.00478861
0.107744
0.138444
0.128905
0.14064
0.141581
0.138958
0.00796457
0.127334
0.0963013
0.129261
0.0947369
0.1716
0.0119087
0.138068
0.0280261
0.1384
0.265302
0.137507
0.100984
0.0916088
0.13952
0.139538
0.138092
0.139161
0.0156537
0.0835827
0.125884
0.0774274
0.0329236
0.135868
0.1368
0.139951
0.131652
0.0329617
0.0897241
0.13082
0.262912
0.140603
0.137131
0.085748
0.141777
0.140688
0.146854
0.13985
0.0212503
0.123314
0.123218
0.172996
0.113642
0.236041
0.0184128
0.141526
0.12535
0.0791818
0.139265
0.129729
0.138303
0.108856
0.115254
0.13322
0.247471
0.240445
0.130466
0.100538
0.138922
0.0513985
0.0246073
0.0856772
0.016953
0.123037
0.0722925
0.00419243
0.140588
0.117647
0.139933
0.118788
0.0699594
0.130194
0.141568
0.105918
0.0702245
0.0624094
0.0719103
0.138179
0.134811
0.114813
0.233392
0.0245371
0.129611
0.00315462
0.140611
0.25531
0.0870359
0.264081
0.0927166
0.109891
0.0801865
0.12031
0.140013
0.0276162
0.101608
0.0800287
0.130142
0.140652
0.137167
0.140179
0.136685
0.142767
0.10086
0.120417
0.142234
0.133765
0.131413
0.145446
0.14092
0.128628
0.13532
0.109875
0.0834021
0.0151307
0.0866018
0.141197
0.0915293
0.0535397
0.00732822
0.114484
0.101872
0.0735318
0.120363
0.140779
0.140694
0.0208291
0.230813
0.128144
0.124422
0.119085
0.138768
0.117756
0.135407
0.139024
0.181823
0.0968047
0.13985
0.00588692
0.258516
0.0820187
0.138311
0.112686
0.141614
0.0665583
0.137334
0.140696
0.139959
0.258087
0.139479
0.0304676
0.121622
0.140152
0.0127209
0.0112996
0.11142
0.1418
0.139885
0.140219
0.139835
0.144534
0.141932
0.0805109
0.0178276
0.0972466
0.143535
0.249446
0.0185545
0.120911
0.103366
0.11566
0.137879
0.140558
0.137887
0.0710653
0.0624287
0.0130578
0.174635
0.140802
0.193839
0.0982039
0.140413
0.208691
0.140443
0.103881
0.140176
0.184148
0.0618887
0.0836478
0.141078
0.13521
0.130799
0.136457
0.10303
0.140202
0.106607
0.14091
0.120493
0.0930743
0.141282
0.138929
0.117045
0.128405
0.0407646
0.109047
0.127495
0.11093
0.224757
0.136991
0.140162
0.0524849
0.140985
0.123741
0.11729
0.137941
0.140892
0.11804
0.128986
0.141368
0.0901113
0.140353
0.137907
0.0119786
0.127595
0.101592
0.0175335
0.140002
0.188031
0.13754
0.138178
0.143219
0.00269327
0.139935
0.126408
0.139993
0.136548
0.157962
0.138481
0.0766328
0.137345
0.0240417
0.106763
0.139316
0.0218852
0.0413943
0.111974
0.140598
0.0948278
0.261414
0.121431
0.141391
0.104711
0.111872
0.104225
0.139956
0.117173
0.0647863
0.048832
0.106592
0.142539
0.135805
0.126497
0.0414487
0.054471
0.13793
0.130529
0.125926
0.136238
0.257112
0.138838
0.106562
0.142906
0.139503
0.141677
0.143328
0.0629656
0.135269
0.126233
0.148543
0.103977
0.141194
0.084544
0.237536
0.0186845
0.228235
0.140035
0.140292
0.0589879
0.125477
0.114196
0.135122
0.141705
0.0119726
0.10186
0.140346
0.116332
0.0297993
0.256211
0.140047
0.134875
0.140021
0.0122592
0.0872401
0.152039
0.117678
0.0897488
0.117944
0.112265
0.128413
0.134272
0.0204239
0.0130909
0.164801
0.140003
0.110287
0.100133
0.114671
0.0878091
0.204303
0.140237
0.122181
0.130664
0.123633
0.102818
0.139408
0.141015
0.125716
0.229653
0.13165
0.139991
0.153665
0.203441
0.0989981
0.138671
0.143492
0.18194
0.0889525
0.120033
0.0952829
0.142209
0.139317
0.0943218
0.0163317
0.0816402
0.140804
0.134467
0.0597023
0.135435
0.139613
0.129102
0.130185
0.139746
0.125061
0.140496
0.12956
0.0537343
0.207621
0.011716
0.00905831
0.247309
0.122368
0.0446113
0.0785564
0.143773
0.130876
0.141028
0.140435
0.264856
0.139171
0.03479
0.142502
0.193236
0.142536
0.12649
0.132647
0.117021
0.109984
0.135672
0.128684
0.0764
0.114049
0.136642
0.113196
0.0981361
0.142171
0.129055
0.147235
0.134288
0.0278484
0.139891
0.137298
0.0858422
0.119205
0.0112466
0.0742756
0.134463
0.0353522
0.141364
0.143391
0.130587
0.0663764
0.0560493
0.139948
0.130466
0.0173846
0.0963188
0.13327
0.145628
0.11223
0.0634916
0.224293
0.11287
0.00743541
0.259086
0.113301
0.157431
0.115954
0.124363
0.140219
0.139595
0.158306
0.103105
0.14058
0.0583425
0.0574156
0.072565
0.142695
0.135019
0.124005
0.198452
0.0936245
0.139926
0.138497
0.021509
0.0485036
0.139343
0.127776
0.0685274
0.0866124
0.129825
0.133096
0.140158
0.0922661
0.140726
0.138855
0.126053
0.14085
0.131552
0.136356
0.0206636
0.0330128
0.126184
0.123491
0.140248
0.138797
0.00459448
0.140985
0.0273752
0.258183
0.138598
0.13758
0.140693
0.139366
0.091467
0.13654
0.0162013
0.0615706
0.0455449
0.140478
0.117899
0.0342015
0.14101
0.131069
0.137389
0.119083
0.141166
0.136052
0.0422566
0.119988
0.0433821
0.157454
0.0586619
0.103429
0.140157
0.0181675
0.140066
0.141255
0.134297
0.121818
0.106885
0.0470814
0.13747
0.0787874
0.112057
0.116723
0.0315355
0.129284
0.14813
0.0521902
0.0539042
0.115591
0.116643
0.0763654
0.140359
0.0444514
0.127827
0.122058
0.0129373
0.141051
0.0098736
0.140427
0.140754
0.139269
0.129874
0.133737
0.135245
0.134011
0.139961
0.134364
0.12123
0.139053
0.0968033
0.114119
0.107728
0.074991
0.255756
0.0666184
0.140022
0.137697
0.139174
0.140835
0.116318
0.0495211
0.137705
0.0235476
0.14078
0.140859
0.117179
0.138923
0.138431
0.194847
0.0856977
0.140143
0.0823838
0.121056
0.108543
0.0660019
0.170148
0.00612082
0.0489254
0.105958
0.13329
0.118794
0.136839
0.138046
0.121662
0.0118286
0.138376
0.124572
0.0292075
0.186193
0.10753
0.142387
0.177228
0.138242
0.119626
0.140573
0.133507
0.012155
0.0427192
0.0477196
0.0615234
0.141005
0.14169
0.140462
0.0149311
0.0211642
0.139263
0.0741466
0.140748
0.0913631
0.238625
0.12537
0.137281
0.156473
0.139709
0.124208
0.0749364
0.141165
0.0733685
0.0882337
0.0958275
0.0586147
0.103805
0.117355
0.140077
0.0472985
0.0876178
0.139968
0.130114
0.13742
0.134122
0.139118
0.184101
0.0906611
0.00922215
0.143174
0.0660654
0.0253647
0.138463
0.14123
0.127488
0.0984729
0.0229127
0.0833103
0.0271742
0.0176939
0.221914
0.111024
0.079408
0.135758
0.0159428
0.133266
0.0134829
0.14168
0.00302779
0.0722781
0.0666108
0.142899
0.140056
0.0978955
0.00793527
0.0967919
0.140692
0.138785
0.124865
0.157847
0.140645
0.129726
0.0866347
0.13858
0.0636036
0.120961
0.133812
0.122622
0.109595
0.241813
0.1408
0.119318
0.116977
0.138576
0.135646
0.142029
0.135804
0.140698
0.121397
0.142248
0.0448746
0.133631
0.135735
0.0139646
0.140215
0.139603
0.228417
0.133927
0.123436
0.141867
0.0837053
0.0366319
0.160827
0.115357
0.0614576
0.0672923
0.140351
0.0274894
0.140955
0.117026
0.263685
0.138356
0.111105
0.138552
0.14614
0.126632
0.0441214
0.206409
0.0850643
0.0823725
0.118892
0.0933474
0.130168
0.104158
0.0985323
0.124833
0.0203589
0.117175
0.125949
0.127058
0.105382
0.122
0.140851
0.12427
0.0126367
0.158723
0.0714776
0.11545
0.107384
0.1389
0.111522
0.165345
0.135009
0.143077
0.0138614
0.129667
0.104673
0.101855
0.0626907
0.140803
0.120569
0.118179
0.0418196
0.140027
0.122859
0.1337
0.0974125
0.133606
0.137481
0.0369616
0.119687
0.247741
0.205141
0.060278
0.133076
0.136916
0.114079
0.107349
0.140515
0.141327
0.0966057
0.105955
0.26749
0.137229
0.142119
0.0882525
0.267735
0.129843
0.0110696
0.142755
0.130226
0.0617991
0.130025
0.0160102
0.133514
0.0939305
0.0206271
0.137685
0.139743
0.0516372
0.147022
0.143285
0.140024
0.109997
0.130394
0.142402
0.141605
0.0762449
0.1423
0.136115
0.252842
0.117634
0.140317
0.139447
0.128933
0.100456
0.141102
0.143831
0.104573
0.114019
0.121568
0.117495
0.0431222
0.0830308
0.140675
0.110117
0.134137
0.140224
0.160986
0.0947211
0.0435325
0.091702
0.128827
0.175237
0.101867
0.142824
0.0933664
0.0178668
0.137889
0.137281
0.110929
0.097154
0.0129878
0.0469441
0.00432084
0.0538204
0.141122
0.136325
0.140172
0.0559133
0.135546
0.0532711
0.137403
0.133946
0.136343
0.143062
0.138335
0.137225
0.135612
0.251927
0.140296
0.125584
0.0237421
0.142782
0.138041
0.220532
0.103177
0.14263
0.102476
0.140177
0.0961327
0.136156
0.0815921
0.140155
0.0253847
0.126616
0.135801
0.234025
0.141845
0.223057
0.228456
0.098861
0.100605
0.112598
0.133321
0.113255
0.140414
0.121991
0.115031
0.126878
0.140238
0.1297
0.13953
0.0730503
0.0322462
0.0889443
0.231396
0.140687
0.0835213
0.13932
0.132427
0.00908034
0.232671
0.0977126
0.0896039
0.0990543
0.13899
0.125202
0.136276
0.122842
0.132311
0.110635
0.138242
0.140682
0.119169
0.102201
0.143847
0.127369
0.122779
0.131762
0.0472299
0.133128
0.177985
0.116886
0.115344
0.0208868
0.129652
0.0707722
0.140799
0.141698
0.0242575
0.115025
0.124415
0.144297
0.0415642
0.135799
0.139447
0.132256
0.112782
0.0938154
0.142295
0.0745078
0.143386
0.00969082
0.0166042
0.0689871
0.0699926
0.140439
0.132586
0.142879
0.125533
0.00884168
0.139609
0.141809
0.130711
0.137362
0.114045
0.137222
0.0370621
0.134883
0.140347
0.241767
0.26126
0.124298
0.140258
0.107248
0.140427
0.131875
0.131956
0.0815557
0.138293
0.141571
0.139409
0.115042
0.136613
0.0207876
0.0580868
0.0851488
0.140296
0.141082
0.0556244
0.118949
0.0952327
0.130992
0.220954
0.0210963
0.0610655
0.131334
0.116624
0.140533
0.0293216
0.136878
0.13177
0.264457
0.0782482
0.126485
0.119794
0.100039
0.0602043
0.0731011
0.141674
0.00787441
0.10993
0.263941
0.186684
0.13982
0.112226
0.140748
0.13821
0.262062
0.0294974
0.243613
0.141611
0.112544
0.138603
0.0432585
0.100541
0.136189
0.00780662
0.144187
0.136479
0.252173
0.14147
0.0210436
0.094669
0.0417525
0.136442
0.141038
0.129709
0.0106004
0.157755
0.00670179
0.116737
0.101791
0.128877
0.257542
0.115606
0.139495
0.1104
0.136866
0.135926
0.138179
0.0202348
0.0825934
0.141461
0.138839
0.0850601
0.140211
0.127598
0.141735
0.111291
0.138105
0.14097
0.12375
0.0258138
0.103052
0.138809
0.143798
0.108748
0.100691
0.143837
0.105487
0.10458
0.032032
0.131114
0.0414764
0.0297119
0.0635119
0.124787
0.0892585
0.250628
0.0915323
0.0862087
0.0597536
0.0113198
0.12206
0.138012
0.075909
0.101647
0.130482
0.0892825
0.139563
0.137912
0.134355
0.113474
0.0368528
0.14052
0.136872
0.139012
0.140727
0.0972491
0.14127
0.0425385
0.0813057
0.133833
0.131761
0.105679
0.137276
0.1225
0.0129395
0.119607
0.140184
0.135757
0.0957268
0.138924
0.172063
0.0131815
0.118918
0.267845
0.14907
0.0437984
0.139622
0.12229
0.124129
0.0103639
0.121544
0.0447581
0.26268
0.140803
0.101014
0.11176
0.132628
0.128627
0.131476
0.0140742
0.103394
0.140811
0.140185
0.140158
0.136401
0.0880359
0.00989421
0.132512
0.134728
0.136189
0.140495
0.144843
0.0379267
0.0492053
0.109568
0.222869
0.138821
0.0787828
0.061658
0.245681
0.221396
0.0306854
0.0299837
0.142439
0.137023
0.118418
0.140061
0.265886
0.136678
0.00820124
0.0504553
0.106464
0.0365189
0.135155
0.140328
0.0736702
0.141945
0.121091
0.0389697
0.111157
0.139076
0.132973
0.191919
0.134844
0.0828773
0.125178
0.135904
0.139839
0.123868
0.0501162
0.126935
0.141636
0.141051
0.111026
0.139778
0.240691
0.127741
0.0887004
0.0150941
0.1378
0.120995
0.100352
0.139621
0.128017
0.0999418
0.12353
0.0230104
0.124677
0.120125
0.135181
0.136437
0.133789
0.103962
0.240642
0.175299
0.138102
0.0428035
0.121848
0.239937
0.137433
0.130183
0.107292
0.136483
0.0892904
0.119529
0.092168
0.135063
0.0886244
0.134743
0.139288
0.0227544
0.105957
0.132354
0.0120378
0.140793
0.131499
0.137422
0.1135
0.0636194
0.138657
0.113923
0.132516
0.135129
0.145128
0.102815
0.105613
0.114923
0.140434
0.132975
0.06497
0.0286816
0.125954
0.113757
0.0368442
0.138007
0.155545
0.135094
0.0381297
0.0385069
0.13351
0.130226
0.202853
0.0652238
0.140248
0.140042
0.124227
0.125988
0.200478
0.140524
0.142276
0.137435
0.138221
0.0742424
0.233095
0.138136
0.137111
0.111852
0.139522
0.0909419
0.266532
0.0643216
0.133784
0.0239873
0.0177369
0.143567
0.0959948
0.140214
0.196319
0.0775544
0.0999443
0.139865
0.140645
0.133161
0.0519707
0.13093
0.020194
0.0421917
0.118627
0.0125925
0.210162
0.140982
0.113424
0.140087
0.034341
0.116123
0.143556
0.140432
0.191483
0.140668
0.0489366
0.132092
0.109226
0.090494
0.136606
0.131964
0.0356023
0.0586833
0.069676
0.0766996
0.0969815
0.0822983
0.21878
0.140069
0.125693
0.134904
0.122726
0.111996
0.135805
0.129593
0.131904
0.127517
0.141648
0.0495429
0.0793662
0.138153
0.143271
0.140101
0.131311
0.10147
0.136182
0.208919
0.107724
0.00253374
0.137175
0.136048
0.10327
0.0759123
0.132941
0.117145
0.0342009
0.0820801
0.140272
0.13497
0.142034
0.144095
0.102603
0.135791
0.0673197
0.131974
0.132121
0.0614532
0.0754168
0.137784
0.142887
0.0664903
0.122651
0.0384911
0.140282
0.0401484
0.110601
0.261745
0.139482
0.0528023
0.140956
0.108406
0.0290618
0.104472
0.239963
0.141791
0.0109292
0.131302
0.133179
0.139178
0.12044
0.1419
0.113994
0.113492
0.1079
0.121461
0.114316
0.0611598
0.138235
0.112876
0.13618
0.0587361
0.0918152
0.138417
0.178423
0.10352
0.140492
0.140833
0.0126636
0.0843314
0.133049
0.0582721
0.110333
0.142027
0.136487
0.131197
0.0706736
0.141629
0.0732964
0.0630329
0.0251431
0.173687
0.141209
0.0779806
0.0694119
0.0550214
0.128073
0.033127
0.100897
0.137815
0.135767
0.140211
0.132815
0.0985793
0.0751124
0.067465
0.136293
0.0767706
0.191297
0.0613135
0.142621
0.0915697
0.0998803
0.134184
0.140309
0.136482
0.247224
0.139533
0.139172
0.128798
0.138004
0.0176227
0.122863
0.115335
0.093422
0.134695
0.126253
0.114657
0.132569
0.264051
0.106413
0.123762
0.121144
0.266208
0.129388
0.0673321
0.259177
0.129168
0.185148
0.265009
0.198376
0.141254
0.218386
0.14153
0.136741
0.120476
0.115869
0.136724
0.140211
0.263029
0.129216
0.14032
0.138319
0.140364
0.0290817
0.122
0.137015
0.0783283
0.121816
0.134171
0.14118
0.134672
0.14017
0.0981635
0.140037
0.249722
0.140188
0.140036
0.0245876
0.0197949
0.140092
0.130301
0.140202
0.10191
0.144214
0.0367119
0.136074
0.141681
0.140392
0.142263
0.0407715
0.131705
0.118827
0.0923204
0.108331
0.140024
0.063061
0.121743
0.0197562
0.0451865
0.155883
0.201106
0.111666
0.00561542
0.140616
0.112984
0.100008
0.125938
0.140851
0.139649
0.137832
0.0598486
0.259799
0.097999
0.130466
0.230953
0.138419
0.138757
0.139951
0.129485
0.0239507
0.0360164
0.122962
0.00632884
0.102736
0.128168
0.120812
0.139651
0.143158
0.139713
0.127666
0.0613392
0.0345543
0.139074
0.140076
0.0361734
0.154813
0.13875
0.14108
0.224712
0.1364
0.137041
0.0727335
0.132974
0.142141
0.102865
0.12092
0.0622436
0.125741
0.120447
0.0161703
0.0496595
0.0671355
0.0216834
0.138361
0.139041
0.0426372
0.0123739
0.077384
0.187924
0.106173
0.129064
0.122575
0.124483
0.0098049
0.14425
0.133987
0.0250314
0.140129
0.123584
0.141297
0.247549
0.239057
0.043658
0.140744
0.130787
0.113261
0.019429
0.193549
0.133366
0.142396
0.141842
0.056163
0.134403
0.122677
0.137302
0.0684488
0.0654034
0.108796
0.170976
0.138472
0.140423
0.137245
0.140345
0.0775522
0.135498
0.131091
0.072678
0.125307
0.11422
0.00621462
0.143413
0.138873
0.121541
0.0344959
0.139577
0.140645
0.00151414
0.126599
0.0157936
0.0922753
0.086969
0.111018
0.13993
0.128283
0.132277
0.133775
0.112276
0.132209
0.0656504
0.115794
0.10673
0.137469
0.139218
0.139443
0.143413
0.119536
0.113278
0.113521
0.118715
0.0204122
0.00438988
0.132737
0.122252
0.0815849
0.106068
0.0295267
0.0296667
0.141144
0.0372092
0.078994
0.108141
0.141796
0.140061
0.188849
0.139859
0.00796513
0.042629
0.0503476
0.22145
0.099014
0.136011
0.140102
0.211639
0.0886773
0.140384
0.139733
0.140371
0.141674
0.1401
0.133459
0.265131
0.0866784
0.046474
0.117774
0.116086
0.129042
0.140885
0.101874
0.140161
0.213517
0.139801
0.0414678
0.20386
0.258021
0.137873
0.108967
0.168875
0.14194
0.160487
0.0961988
0.122654
0.13902
0.125662
0.0975145
0.00944559
0.140575
0.102761
0.062466
0.106812
0.141148
0.139989
0.131344
0.108679
0.128726
0.140726
0.137991
0.106269
0.137179
0.210498
0.100811
0.119688
0.113973
0.127295
0.173679
0.25838
0.122596
0.141244
0.12303
0.215074
0.135044
0.0477813
0.0465269
0.0982019
0.0994332
0.126877
0.12682
0.0952839
0.0800887
0.0251593
0.0731349
0.130825
0.111508
0.0846379
0.140509
0.142616
0.0612564
0.118748
0.0958716
0.107465
0.131901
0.062893
0.118534
0.0620267
0.140823
0.140121
0.130204
0.0115102
0.143282
0.123146
0.140619
0.121708
0.114894
0.14001
0.12738
0.242924
0.182608
0.139932
0.122522
0.131189
0.137992
0.14003
0.136538
0.123239
0.139994
0.0587659
0.128702
0.117244
0.129808
0.125625
0.140444
0.00183473
0.118955
0.140338
0.140328
0.0490469
0.139814
0.0989878
0.140933
0.0689726
0.141984
0.0463767
0.0958573
0.138263
0.188076
0.0519382
0.13006
0.136807
0.110652
0.140209
0.0970484
0.0821817
0.0454723
0.105582
0.141647
0.140114
0.135444
0.12505
0.2278
0.140258
0.203631
0.117229
0.140107
0.02956
0.139798
0.0970878
0.140564
0.113005
0.0305124
0.127221
0.136764
0.114898
0.095717
0.136987
0.0332431
0.245526
0.0322787
0.144469
0.1373
0.0872454
0.138777
0.132595