/*--------------------------------*- C++ -*----------------------------------*\
  =========                 |
  \\      /  F ield         | OpenFOAM: The Open Source CFD Toolbox
   \\    /   O peration     | Website:  https://openfoam.org
    \\  /    A nd           | Version:  7
     \\/     M anipulation  |
\*---------------------------------------------------------------------------*/
FoamFile
{
    version     2.0;
    format      ascii;
    class       volScalarField;
    location    "250";
    object      p;
}
// * * * * * * * * * * * * * * * * * * * * * * * * * * * * * * * * * * * * * //

dimensions      [0 2 -2 0 0 0 0];

internalField   nonuniform List<scalar> 
11372
(
-22.0675
-31.0377
31.3577
-33.9012
-0.770706
-31.3343
-11.2573
-24.9682
-8.22
27.9234
-8.80799
37.6623
-19.0316
-0.43774
-2.48432
-33.7898
-13.9321
-12.8684
11.0088
13.9968
-34.7106
-2.59642
-4.83457
-34.86
-8.23976
1.77495
-33.8812
3.59764
12.4406
12.8078
12.4057
11.4885
-3.59575
-1.31338
56.0543
-0.75362
-4.9115
-1.14519
-15.0321
-12.2633
-27.2043
12.1677
-3.05466
43.5417
7.04014
-19.1197
-4.69021
-27.374
-32.1035
-3.74077
-36.3515
-9.73632
31.6456
-24.7421
10.3643
-8.16031
43.0309
-31.5763
-3.74594
36.7082
-21.4173
-24.18
-0.429377
-33.4999
-7.83758
-0.965234
-18.5932
-33.7394
25.2768
-33.5634
-1.33833
-5.19637
-4.68968
-9.15734
-22.1564
11.6215
-34.2317
1.07644
11.3941
-40.4737
-32.7763
41.3962
62.7004
15.533
-73.1963
-42.2414
0.249626
-5.74715
21.0977
-39.1152
-4.29037
8.79827
-32.4562
11.945
4.50863
-2.9909
-15.9309
-16.4566
-35.9282
0.215507
9.26519
26.5997
11.2383
-3.70294
13.8577
59.3799
-32.8269
12.0974
2.53412
19.671
4.13036
22.7207
-2.44972
11.6007
-28.5245
8.3563
-26.6156
4.41022
-0.739549
-29.5173
-29.694
-26.3096
-2.366
5.65453
34.3807
13.289
-8.74642
-19.2639
-3.77598
-31.7153
-15.1027
-11.3024
-33.9586
-19.5945
-18.6734
-5.26499
-11.3491
-18.013
54.2998
11.8484
-4.40832
11.4719
-34.4419
12.2683
-0.576777
-21.5427
-33.9159
13.0107
12.3108
-31.1713
2.59113
-25.1541
-10.3351
-31.6936
7.74286
-0.549564
-7.33904
-5.21246
-22.5294
14.4258
-4.23916
-3.97531
-28.1132
11.5598
-35.0288
-9.348
-22.1359
-34.4581
-4.22266
-1.90286
-34.1606
-2.93972
-33.5128
-23.6013
-8.93151
-45.05
9.77811
-32.3613
-50.3682
10.788
13.8315
14.726
-43.4829
-25.9347
-35.4424
-29.3108
29.0853
-32.2342
26.7007
-32.3806
-0.848723
11.8618
27.5534
-13.2183
-17.0296
-13.6037
-33.6714
12.8881
-33.5835
-13.4221
12.6787
19.131
16.2605
-7.63813
3.68806
-7.64916
2.48713
-7.78419
-9.60465
27.0904
-36.2644
-6.02063
-0.181024
13.8875
12.5697
-27.3272
12.496
14.3996
-5.51491
-33.7122
-28.4431
13.8188
60.4365
-32.1254
12.2265
-4.93569
-33.5242
-1.26079
11.9643
7.18913
9.8074
9.83756
-20.2392
-1.16886
-31.4844
-32.9708
-27.5246
0.49109
-27.5975
-7.77967
11.4448
-43.7491
11.8469
4.49781
16.3112
2.79394
13.1005
-17.9084
8.37183
-46.1401
3.8712
-1.07972
-85.8307
-0.819652
-34.72
16.7421
-34.6134
6.32334
18.1647
8.67884
-25.3007
11.8569
-11.5821
13.3498
36.1881
-14.1717
-3.71368
-34.0493
56.3549
-11.1989
65.1865
-12.7272
5.17525
-17.1701
-14.3773
-34.3696
9.48707
0.459799
8.29852
0.465807
-3.90606
10.438
15.3081
8.52192
-31.3184
-0.983593
-35.1837
-34.8576
-1.41859
-12.2249
-33.5813
11.8231
-33.9116
2.58043
-34.8388
6.75691
-33.2011
2.71613
-1.70205
-32.295
11.0128
-24.5454
57.2329
-0.0592155
-3.50812
-10.8866
44.297
-3.30419
10.8361
-8.45884
14.1189
11.2666
-27.2492
-51.658
5.19839
7.30132
-35.6637
-13.1293
-16.0185
-30.7071
3.1018
-33.0027
-3.99972
14.1794
12.8468
-30.5635
-22.5299
22.9496
-7.05256
-11.0417
-7.19912
12.8009
25.1806
-26.599
-18.1251
-21.1167
-2.40699
-34.6053
4.26165
-9.15047
-35.1939
-23.284
6.80736
-4.561
-0.27722
-2.47924
-2.82675
-8.63957
35.1971
11.3662
34.7371
-17.6943
24.2421
28.5428
13.8321
-28.2724
42.799
22.6019
-2.00152
12.0929
-2.21984
-10.3177
15.2438
0.530448
5.01841
-34.7397
-18.402
46.8039
26.2312
14.4637
13.6659
-9.92719
-32.5271
-34.0979
2.15934
28.3915
42.1349
12.4341
-30.1004
-31.2595
-0.104561
13.2705
-3.22147
-11.3893
10.2167
17.7128
-33.5626
2.84034
-19.6965
-6.61134
53.015
-33.0277
6.91073
-9.25601
3.16806
-7.49171
-1.41679
-77.9825
-4.43716
-22.2636
19.8001
-2.83167
-0.726075
-33.6321
-6.68037
-2.65225
57.5324
-32.9783
-7.77344
-6.59743
10.6782
-0.00102305
-4.84775
-33.1249
-34.0132
-33.1344
-31.1857
14.3818
-0.0380787
-6.01962
-10.5805
-3.17723
6.68045
-25.4972
11.1061
10.3764
-33.6838
-2.024
20.6674
11.1625
-1.34248
0.848802
0.461243
-33.4035
-23.3837
4.9218
-13.801
13.7333
-33.4586
-11.285
-19.3543
-3.44251
11.0071
-9.35771
2.9858
-34.3373
-33.3111
12.5098
-33.4769
46.4893
-0.198804
-28.3006
-9.71955
22.4038
-17.5344
-30.746
-20.5865
-27.1449
12.7643
-0.973913
1.48659
37.6051
-31.0898
-4.31888
-35.3181
26.8209
-9.38189
-27.3012
-8.51072
20.5177
-4.62531
27.8526
13.4166
-22.8866
50.5967
21.5072
-16.8024
-1.70643
-3.19321
-20.9468
13.8864
59.3261
-33.9609
6.66256
-0.187625
-33.2497
-4.27517
-20.5054
-2.31391
3.24164
-31.4264
-0.265074
5.55883
-3.14397
-13.8239
21.5449
27.2932
-1.18646
13.141
11.91
9.56981
-29.347
-33.9481
-35.3051
18.1978
-4.79337
64.9675
6.99668
-31.457
-2.10091
-27.9811
-21.6219
-12.9638
11.5555
10.5323
10.347
22.9829
14.2444
25.2421
-7.93043
-17.643
3.95609
-6.51419
-3.67388
19.4253
6.836
-33.0988
-0.551156
-32.0312
-11.9716
1.45296
-3.75497
1.8965
-12.6509
-3.8079
-2.81182
5.76588
-0.624159
-19.2292
12.3161
-2.13446
-34.579
11.2878
17.9306
12.9036
-8.31261
17.2061
-1.0627
-38.8889
-33.0332
2.90277
1.49726
-20.6404
12.3346
4.31649
6.49036
45.1377
10.9453
-3.72228
-27.5959
11.4299
3.00161
-2.62657
-20.1186
2.03974
-7.12542
34.9171
-32.7014
-18.3165
-9.03969
-0.840955
-3.77657
3.57465
-49.1462
11.2134
19.6686
-24.4511
-34.6874
-3.66768
6.25473
-32.918
-8.55557
-30.0816
-35.8712
-10.5638
2.22527
2.26363
-2.65051
-35.7844
-1.56963
-5.65685
-8.79328
-2.77974
-37.7607
-22.9844
-6.56859
-11.3178
-7.36458
-28.4272
-32.4043
-14.9371
-13.677
4.59027
-37.9654
11.127
-7.23076
-1.22859
-7.12041
1.98481
-23.6246
-32.2327
-2.79029
13.0682
8.36216
-14.7383
-16.8029
-23.6131
2.69032
-16.2502
-33.705
-29.939
-24.992
26.0248
26.1452
12.9827
-6.26065
-21.7459
-16.9879
-30.7867
2.56149
-29.7156
12.122
-13.2531
0.889541
-19.3012
-17.3299
-31.9333
11.1506
1.21466
-6.31574
11.2613
5.0197
-0.25125
1.79919
13.8079
1.03731
-8.88807
-32.6566
-29.886
-3.19578
-2.65751
48.9741
-7.69633
31.6028
1.30609
-15.4311
9.81454
-36.1222
15.118
48.8888
-3.55814
-0.0863063
18.1096
-52.3328
-7.57758
-33.0212
52.199
45.4996
-5.61588
-27.3674
-24.7593
23.0083
13.1699
12.1948
1.25519
-23.0337
-1.87539
7.09848
15.5877
-25.9424
11.1993
-3.36734
-33.5356
-33.7384
-25.5251
-0.216773
-0.911183
-8.17588
10.9596
-18.9595
10.3723
11.0763
6.35221
-10.6988
14.5535
-13.2974
17.5259
11.756
-15.3882
-1.78114
-34.0014
-14.0012
-30.6949
-7.22426
-7.69176
7.86587
5.78986
7.01663
1.54973
12.9992
-31.5123
-32.099
8.75409
-31.1128
15.6465
16.7413
-2.45735
-3.7275
12.36
-6.99747
-25.3432
-8.21139
32.782
-12.101
-28.5115
5.40809
0.744851
-1.78096
-4.61181
27.0529
-34.4991
4.2754
-14.5446
-5.97224
-3.8355
-24.9852
27.9268
-11.9108
-4.81857
-1.13822
2.72591
-51.9408
-12.2666
-17.1447
-21.4707
29.0455
25.5587
-33.5161
-30.7101
-33.6784
-31.4316
-38.7384
-14.15
31.6071
-24.2574
12.5134
-7.6536
7.34879
-32.8923
0.670133
-33.5251
-32.1661
-28.7368
12.874
-4.83837
-1.42807
13.6628
-3.01629
-29.1073
-0.241375
-34.0214
8.51025
-24.6162
-2.4645
9.86386
11.6514
36.7342
-17.3645
10.6795
10.908
-33.2855
-76.7905
20.4656
-32.7209
2.46796
-32.6175
11.5353
-61.9544
44.6687
58.6309
25.6893
-5.82096
6.4359
3.13829
-34.8023
-33.4725
-13.4196
58.1049
-3.04869
-6.26867
16.7135
-1.54055
-1.97839
-33.1722
-38.4852
-4.41259
13.5681
8.29965
-28.7844
-35.3937
3.8181
-32.7474
-1.8108
3.92601
6.56946
-5.29592
-16.0853
39.3346
-3.29501
-31.033
-16.8336
-35.0919
3.77369
-31.3883
0.383765
36.6003
-31.0617
54.5043
-19.4807
-1.21461
-32.6359
17.7975
14.6304
27.7899
2.81125
-34.7776
-78.4327
-21.9559
-2.73314
11.8163
-33.0991
-33.0863
-19.9532
-31.5685
-0.375091
21.0099
-24.1645
30.3341
-18.5947
7.60359
-70.4989
-19.2586
-15.4015
11.0203
16.733
-33.1678
-2.01135
41.8992
13.7323
2.72216
-31.1826
-2.41152
-1.61577
-19.3478
-38.7448
-5.90555
9.49786
41.0899
-1.0163
10.0649
6.33178
-5.65022
-21.8094
12.5696
9.03509
-25.3926
27.1047
20.8879
-33.8835
-16.3219
-8.57823
-16.9365
-22.0059
-2.83087
3.67427
-4.28276
38.5744
5.16117
-2.79445
-1.94687
0.288796
-17.2425
-0.0760905
-0.32175
-8.19271
-23.4289
6.39979
10.7261
5.86767
27.0114
11.1378
-4.21173
3.42288
11.4643
-30.9573
-26.0813
-0.241487
-4.84681
1.74468
-33.647
-0.461913
3.06585
18.9168
24.7431
-17.8825
6.31324
4.44226
0.325541
-14.4153
-18.375
18.0905
-7.40215
3.14896
-31.8399
6.78593
-33.9642
-7.82748
-32.8618
23.4352
-0.307766
5.86441
6.78256
-9.95895
24.075
11.4563
27.5202
-33.609
0.517067
11.4281
-25.2011
14.719
7.45058
-7.04651
10.3933
20.7177
-3.36464
-33.7304
8.31329
-5.10621
9.72514
-8.97628
6.21383
3.36925
-23.8668
1.6391
-1.15487
-26.2149
1.25815
-34.2804
5.47946
5.90629
-53.7398
-8.15734
-1.62917
9.66222
19.2631
10.6825
-2.94349
-8.62808
43.1107
-14.4643
-3.0586
-6.63868
-2.01232
-21.346
2.59619
0.251236
3.832
0.370904
20.8291
-32.7214
0.0590029
25.4841
48.4642
-13.9911
16.0215
-21.0407
11.3626
13.3994
23.6945
-17.4602
13.223
13.2351
-5.37026
15.3978
-31.3324
5.08839
37.0402
5.9064
-34.2221
-14.9841
-19.9859
12.5754
-3.24391
-2.42294
-19.1173
-0.443698
5.56365
-34.4588
-0.670139
-3.63527
-35.0216
0.770765
-5.58488
-0.17973
-27.5329
4.48093
18.153
-8.04871
-0.214942
10.8214
-28.5602
7.1086
-2.72678
10.7068
1.50315
61.1339
-25.224
-4.14786
18.5592
12.7605
-26.2643
1.70441
10.8475
-27.2158
-5.79243
24.8641
-2.62092
2.32467
17.4369
-1.46917
-13.9067
4.18462
2.49144
-1.97976
-27.0589
-15.0018
-16.585
-28.8352
3.07305
-19.42
-33.8821
9.48995
-9.96816
13.2474
14.0589
-1.16102
-27.5908
9.37904
14.6855
-33.9725
-7.18076
-26.1748
-14.3033
11.3894
-32.3739
-34.2503
11.0315
13.6993
-22.0553
-13.5947
-33.1455
-34.5864
-7.22594
-11.6542
-14.8643
34.4311
-3.76056
-16.4079
-1.74301
-1.99347
-23.0135
20.8394
-7.03188
-13.9132
-7.9212
-0.29145
3.5731
8.70552
-8.17145
-33.7224
-37.4982
-1.88639
-31.8368
9.1378
54.6025
1.89561
-28.2936
-31.3934
-6.51298
8.9671
11.3768
47.9142
9.68683
15.6178
-29.4923
-21.6923
-14.9665
57.0627
12.6507
14.2138
-34.0303
-29.8375
-34.477
-33.2029
-3.90582
-19.4248
17.6213
-5.81217
-1.74235
26.6812
2.86228
1.60319
-29.7056
14.8734
-11.9362
-0.646888
14.6324
9.65042
-30.1269
-4.70718
-1.89143
9.68498
-1.28316
-13.4381
-6.35714
-8.16554
-33.8751
-33.1045
0.596666
-53.8453
12.4832
56.5553
9.73438
-32.256
-12.1588
19.2797
-1.81717
8.1869
-52.5305
-1.63152
-30.4684
63.7754
55.8452
-0.517121
-33.831
-35.8316
7.06951
1.08408
-1.45385
55.843
-9.84159
9.49397
-0.110259
10.9842
10.9195
63.9199
-35.8002
-7.8205
8.70885
-4.94742
-0.174975
-1.73059
-34.0459
-11.2514
-11.929
28.379
5.95582
-9.22885
-6.0202
19.2879
-2.67613
21.823
-5.06373
10.4436
-0.395496
-14.6754
25.6185
20.2165
-5.19423
-19.9549
-21.1873
-30.6389
-1.75166
19.6617
-2.11458
-3.56861
-33.2388
-32.2219
5.7045
-34.5467
-9.02127
-11.092
-20.255
-4.06979
-16.435
-31.4428
-9.83296
44.5167
4.29557
11.6599
43.9003
-6.95401
31.6683
-32.483
-5.5948
12.1385
-1.57021
-32.8482
-10.6885
44.1206
15.225
-32.8865
13.4721
-21.8089
14.7962
-33.0703
-5.77312
-33.1519
35.472
-0.755831
0.459905
-19.4695
-0.526923
-12.8106
-24.8002
-3.56973
1.41906
20.0563
-21.5657
-32.8351
-32.9829
-43.4527
5.77955
-23.6519
30.7329
11.7581
5.14345
-31.7428
13.8133
-1.5323
-1.05445
-16.9513
-1.1611
-33.5851
3.05528
4.11498
-8.63919
-28.6179
-18.288
6.29773
-10.2953
-11.5437
-11.2436
-31.7494
-32.2714
4.29646
-21.4024
-23.1165
-23.3625
43.6618
-23.6939
13.1936
-22.852
12.164
-32.8548
4.26576
-3.75369
5.83042
-6.88126
7.0283
-17.6051
-32.8632
22.8314
-29.8868
-33.1731
27.6377
2.7044
-23.1932
12.2227
-7.35854
0.534589
9.40032
-33.5027
-24.1966
11.09
-35.2366
-22.2131
15.9777
-32.2804
8.98085
-2.02785
-11.3396
-2.53219
-13.3371
16.2028
-24.5449
10.16
-22.6243
-31.8465
12.496
2.76048
9.33832
-17.8055
24.4235
-1.70678
-7.94315
1.96268
3.7984
-2.94729
-13.4546
11.497
16.5819
-2.55504
-74.7672
-3.24492
-0.112402
-67.9053
3.34444
-10.7244
0.415242
-31.365
-33.43
-35.6558
-14.0985
-2.4553
-16.3453
36.8659
-2.66787
-31.729
-23.3275
-0.278367
-18.9108
-12.171
42.2769
12.8965
-1.46787
-34.6583
2.19066
-17.3077
-0.425474
0.703641
-32.1793
17.0657
50.4517
-8.75314
-34.2795
-8.38967
-3.02168
-28.8188
11.887
-30.9199
20.3428
52.7994
-13.2736
11.542
0.339262
30.9736
-5.48037
6.64305
30.2693
-6.32009
-3.03697
-18.6582
-33.4021
-22.5789
12.3192
45.425
13.6051
18.938
-33.1188
15.5548
9.54586
-14.0767
23.1087
2.10731
-11.4144
4.45585
25.4986
14.0539
-26.0849
-10.5649
-5.87027
1.51351
-8.95895
-33.8811
-20.2484
8.11072
65.5437
-26.4469
-19.0866
-14.5243
14.8597
-33.0762
19.2409
-1.20287
40.7143
37.1867
-2.70247
49.8767
-33.4052
29.5159
-3.60476
-28.7307
-7.16511
4.08508
-33.0878
44.006
-8.69849
-1.89852
-9.17525
4.90772
0.428839
-1.69979
-30.7727
7.59541
-8.3963
-8.38241
50.0184
-30.3478
-37.2655
3.67899
-49.7528
13.1163
-12.7077
-1.52972
-18.0042
-4.19185
1.98855
8.06611
13.007
11.9177
7.78815
-24.2433
-10.3242
-16.6124
32.1629
16.1999
-5.65384
11.4867
-5.61181
-32.2051
-17.7483
24.1137
-6.10777
-4.28804
14.7921
-5.1126
-1.37731
5.10451
-0.522799
-1.4237
-42.9359
-6.57692
15.725
-34.164
-14.0703
-31.6332
-30.1768
0.727291
10.8767
-25.1288
12.1526
-9.46266
12.8899
-15.3364
-4.64422
20.5706
-29.478
-29.474
15.8777
-16.958
12.5691
-34.0761
61.154
-20.0438
-66.3029
33.8774
-24.7747
-33.8812
5.39734
-33.5767
11.1681
0.0494493
-36.0998
-7.94276
-3.16244
45.4594
-28.5065
37.6039
-21.1101
13.4744
-4.00115
-2.57227
-30.1333
-35.9193
-8.48299
60.6405
5.25279
-11.9233
-35.2834
-16.2733
-3.9732
-33.4412
-18.9212
26.789
11.0764
-50.4505
47.4912
-9.61432
4.69609
5.70559
14.5408
10.4685
15.3454
-3.07175
-13.7208
17.6945
-1.37155
-5.35189
19.8658
-2.11746
3.35798
-6.13849
-7.11684
-12.6942
-23.4328
-1.9835
-17.3673
2.40708
-15.4559
-28.0413
-33.1212
-32.8246
-11.628
-22.016
-13.8457
2.72392
-2.16848
-33.0229
-25.332
-1.21566
-6.23128
37.0398
-34.1404
-4.43079
-4.15579
6.85611
-34.9413
-3.74658
11.5579
-33.214
-1.61139
-29.962
-5.45957
-13.2082
-2.68984
-27.1163
14.275
4.3551
-5.03002
-1.97865
11.7153
-32.498
-9.3715
9.58936
-33.0364
64.3992
-6.4458
-1.81867
6.51839
-0.937737
5.37782
-0.904523
-0.881441
-10.1262
15.7723
-22.2757
-0.650032
-2.72921
-30.8006
14.2215
-17.6792
-11.18
13.8282
6.22836
13.4467
-30.1337
-22.7779
-69.0649
1.0468
-0.530872
-0.807508
-2.32046
5.64346
-2.65045
3.46547
-19.7114
4.80236
-8.05214
-23.4578
-22.0128
-3.79522
-6.8925
14.204
4.41662
-0.0083763
10.0024
-14.7346
-3.47187
-10.6324
-20.8545
0.579355
-4.72172
-8.21791
-6.09077
-29.8388
-18.0346
19.5312
-17.3918
1.21748
-2.02808
5.20397
59.7467
0.861058
26.1528
-15.2241
13.4275
-0.110958
37.8539
12.676
1.59816
51.5372
8.15152
-2.09305
-28.9202
-7.94715
-18.1517
-34.809
11.1448
-33.8943
13.0794
-5.00592
-35.683
-33.6032
11.4019
10.1602
10.8591
-1.48716
-35.8764
12.8041
-29.2191
-4.82059
49.4304
-9.52686
11.7825
-67.5201
-27.1218
41.0903
6.87392
-14.7906
-23.3611
-6.38689
-2.13628
-17.0845
-0.823107
44.6177
1.0191
-11.8095
-23.4308
-42.1721
-0.339445
-1.75845
12.4347
-11.23
-31.9201
-23.7017
-3.59658
-24.1254
24.8476
-1.72505
-2.92484
-5.09102
-14.1449
-2.16186
11.8095
-3.07883
-2.04744
50.4739
17.7823
-9.98142
-7.85029
-0.696432
0.753528
-10.0384
-31.0621
-61.3491
-9.39602
10.989
9.65439
43.2458
-1.06332
26.5483
15.4515
0.0794611
47.3822
-33.0573
-2.65831
-15.1415
-33.042
-18.2488
8.9452
18.6864
-4.36906
61.1637
-14.3293
-33.8842
38.6083
-15.7484
-14.53
0.928821
25.1524
16.0112
-31.6823
-32.5484
-1.29634
1.56083
15.9946
-0.347673
-14.0842
-0.0469906
-34.8447
0.533373
-11.5071
-9.21635
25.3561
-12.7535
3.84127
2.18295
-35.5878
1.10122
-2.94462
11.3438
0.441818
-3.32456
-18.6002
8.57019
-1.94451
-34.9207
-12.4682
-0.96715
-3.65839
-3.31884
3.23966
49.5813
-32.9351
-14.9071
-3.20174
18.3898
56.4414
17.299
6.37201
26.2437
-8.90058
11.5311
-11.5137
-2.67351
21.1142
-31.7859
-33.3673
-2.18898
-33.599
-21.6858
21.182
-32.6995
-21.3976
-1.52153
5.80346
0.67211
3.51822
-25.2104
12.1036
-32.4615
-2.90128
-33.3593
-30.4353
19.1157
11.5791
-3.30512
-12.2551
15.7709
0.28174
-20.5009
-6.32614
14.6179
-35.2629
-1.4951
-1.13003
2.84029
-2.58188
14.5418
-31.2129
11.019
14.3533
-26.761
-1.3323
-34.9212
-23.6718
19.4384
-34.8367
0.459189
-0.359959
-32.4338
-32.2261
-33.0508
0.966771
22.6897
-44.1536
-22.1346
-3.14846
-0.708941
-2.8577
-33.3916
-29.4931
-13.495
-33.2668
-24.3419
-14.1394
-33.6509
-13.2347
29.0777
10.3051
-1.14157
-6.41942
-17.749
6.74689
-24.292
-13.6333
-24.8986
-0.861015
-28.3459
-10.9075
-1.47152
45.4748
-4.6753
13.0898
-43.8172
-40.8913
12.2132
25.9106
-35.0484
-27.0987
-9.26798
-6.66849
10.0407
-23.1331
5.22694
8.15199
-0.130169
3.42897
-2.06964
-0.694398
-33.0087
-30.6283
28.5326
-7.52371
10.0412
-3.75723
-39.8856
-1.72954
-32.7648
-10.5719
2.99916
10.7412
3.34002
11.9755
-25.2993
15.7265
-45.9904
-29.0499
2.55751
5.16178
-12.1639
60.1055
-1.31864
11.3453
3.62679
-10.5453
-4.31437
-1.46878
-26.7399
34.0665
-31.7193
-25.9134
-0.147969
-9.23315
8.40767
63.7361
10.9485
-3.57599
0.577335
-6.08526
42.9358
-27.7202
-5.7998
-9.98372
-17.153
33.5641
-28.3337
-0.946255
-0.0883689
-33.2496
-30.4475
-5.40676
-8.01312
-33.1474
-4.86819
-31.1383
-1.4293
11.9198
63.4453
-3.81256
-31.1905
7.98316
4.8564
11.8224
15.0907
-0.69841
0.828929
16.2799
11.3046
-5.41315
-11.4487
12.0163
-18.4557
25.9189
-16.3524
-24.4464
-1.27742
-26.122
-5.26412
14.0313
-4.18898
0.781743
38.1746
-27.162
13.9965
-32.8991
4.63562
1.61242
-10.9017
12.1686
-2.99012
-7.92556
-15.3521
9.27941
-19.1846
-1.18307
-2.40451
-28.3489
-35.6119
-46.4277
-28.5889
-16.6006
20.281
-8.33163
-6.1015
-0.125535
10.2507
-30.6971
12.1781
-0.784812
-30.1676
-35.5283
-18.7226
-11.4657
0.874127
13.0687
-14.0186
6.03455
19.7203
-32.4028
-29.0001
-31.2706
-20.4668
-3.72511
-1.00274
-4.68064
-33.1306
-33.9962
-2.04026
-17.2924
2.58879
29.2441
-10.8144
10.8889
14.4318
-33.8734
8.53915
30.2167
-28.0333
1.24362
55.235
-23.5162
-33.1007
-24.3357
-0.291172
-6.82457
5.61741
-26.1534
-18.919
10.012
7.88251
14.3224
-5.07874
12.1143
-32.3877
-7.06054
-35.1308
-2.20972
16.0187
-34.5107
12.7882
1.98587
-7.57037
-0.433546
56.9974
-35.1628
-33.7443
17.7105
-4.26764
-16.3087
-30.7068
-6.93278
-31.161
17.5782
-59.2808
-1.9783
63.4643
-24.3718
45.2984
-2.062
10.6281
-18.0162
-33.6123
-0.219432
5.81402
12.5632
-4.29426
-34.6178
6.1101
11.8229
-5.78042
-1.55996
57.5479
20.906
-3.27271
-5.6547
-17.9426
-31.1779
4.1316
-9.20658
15.8648
0.832276
2.72788
-0.882635
-6.53028
-1.9548
35.4476
-0.852729
-34.9068
-6.46347
16.8386
-33.7329
8.55867
11.6021
-17.106
13.7941
-33.4112
-2.30412
-24.3308
-27.7753
-33.9605
-14.2544
-31.2465
-23.3446
8.57461
-31.0993
3.44128
-11.3184
-6.28161
-35.7318
14.8367
12.5749
-33.4647
-9.80425
-11.1328
-34.9928
11.2366
-24.0376
31.6827
-2.00712
25.0045
-20.05
-21.163
-11.9203
-34.2712
32.9325
16.0723
-33.7004
0.0189224
-34.4006
1.08387
-2.16299
-83.5722
-33.757
33.6847
-5.11339
-9.93207
9.80684
-13.2922
-3.58143
17.8687
-3.13749
-42.5225
-9.64465
-7.76293
-8.75493
-26.063
4.3004
24.8896
-12.8903
21.62
10.9951
-12.8514
-7.31807
29.8388
0.0703429
-2.84594
46.6496
-7.70591
0.973842
-34.8091
-35.1606
18.4455
14.8736
-15.9465
-8.91494
4.04614
-0.187825
-28.7343
-31.2418
-15.3213
3.37341
-0.785346
0.0371056
-18.6755
-2.89734
64.8385
-2.13553
-1.19676
-26.4286
23.8378
-35.241
1.85429
25.5137
-33.5933
13.7849
-4.35696
-45.5876
-1.1885
-1.14239
11.1605
-15.5706
-0.150734
-1.54601
-3.56754
-16.9515
-1.27108
14.2279
-12.8211
-12.5266
-3.64252
7.69121
-3.4115
-11.9067
1.46514
-1.59396
19.4515
20.9022
-10.2155
29.6426
-42.0362
-15.5922
4.14297
7.01787
16.5847
7.99677
-17.5517
41.3731
-26.2502
4.11772
-2.72489
-10.6574
-16.8765
-3.30285
-11.5111
-34.0875
13.5072
-5.73824
-9.15896
-17.605
57.4634
-29.0511
50.8428
18.9266
2.76111
-4.69929
8.76793
-31.2489
-6.3975
48.92
-4.23701
16.7953
2.13979
-2.04407
12.9389
5.52406
16.9878
-28.6449
9.00356
-5.85205
-33.9037
-2.45836
7.32236
-33.0381
6.53833
-1.43539
2.99478
6.11985
41.8095
-4.06151
-23.6741
3.90425
-29.7932
-5.53542
-6.62691
-27.6596
-0.478029
-4.70886
1.44511
-13.6794
-0.698895
-16.9918
7.99449
38.5887
8.2925
32.4326
22.6836
-2.3951
9.53995
-7.65327
-2.41517
-27.7001
-31.6468
47.1255
-24.5347
3.75598
30.1912
-5.26458
-3.51052
-34.8688
0.975869
-18.7439
-23.0408
47.842
11.4419
23.564
-1.33511
5.71161
21.2539
-16.9473
12.1339
-4.18536
-14.2281
-1.02233
-0.155704
-4.4647
-3.42537
20.2363
-29.3864
-8.06766
-35.7653
-32.2641
-7.82792
-32.8858
-2.92167
2.16779
1.7021
0.284384
-33.0555
-12.9228
20.5177
-2.44275
43.156
16.6605
-1.98165
7.82444
-1.73374
-21.1011
-2.75636
16.8249
-2.45823
-33.0279
-37.7385
49.3388
47.7352
6.08938
-4.13388
-2.02376
28.459
-96.1463
11.7785
-0.527155
14.7253
1.5792
-16.2721
13.9423
-31.7315
17.9059
8.3509
1.12256
-6.07234
-7.87339
9.16649
-12.0655
1.56338
22.7649
-34.6899
-25.2035
13.0484
-3.38851
11.7071
-8.74059
-6.41262
63.8956
-28.6473
-23.2334
8.82259
-2.88197
-27.0414
35.9557
-33.0188
18.4451
-33.585
-31.3479
-23.299
-3.30579
-5.79103
7.34733
-33.0463
14.9653
14.6374
-26.2672
-13.205
30.8061
-6.03555
-0.370122
-36.1423
-20.9737
-1.84012
-66.3523
-15.229
-7.37781
-0.491516
8.05386
-5.39748
5.08776
13.407
-19.1183
-29.0514
-20.3221
-1.41349
-15.7004
7.30455
40.2312
-18.6798
15.706
-33.4992
-0.654385
15.293
-29.3585
-3.67628
52.1358
-35.2363
-30.7749
-34.2821
-4.36919
16.8817
-37.3077
-2.73159
-82.8436
-0.273076
9.76224
-0.443927
-15.6509
-4.64748
11.6475
-17.5823
12.7409
16.6006
-5.45037
-32.6466
-0.29321
-3.31274
-0.577724
-9.22784
9.73489
-7.16323
-1.2844
-7.46407
0.265657
-3.62145
32.1982
-48.2826
-15.4511
-5.53385
-2.29829
24.1568
-20.6199
-1.20438
41.2379
-16.8954
62.8876
-2.37806
57.4863
-57.6901
-16.074
31.6505
26.4188
-28.2266
37.6973
-24.9025
-22.8185
55.3692
-12.9932
12.5568
-21.9852
-16.8691
-8.55667
-35.2197
11.6138
-4.9961
6.17008
-14.3056
-29.9224
5.09121
-6.03335
-5.23644
4.68433
-1.1618
0.230278
36.3232
27.3455
19.5219
13.678
-12.6427
0.0571603
-1.21696
-33.0967
-6.09861
9.5626
11.2481
-14.7189
12.4419
-34.7804
62.3688
-7.05922
-21.0611
-0.35074
18.8575
-4.53014
-13.145
-0.257386
36.594
-1.98837
-29.2993
-4.34371
1.62936
-33.4323
-16.7305
16.4145
-5.59891
5.65392
-34.7308
-17.1103
2.52232
9.87172
10.1804
-2.45087
-24.4319
-35.1984
-5.00976
18.1333
-5.08725
6.0438
-1.40653
-27.2024
-30.4134
40.67
-32.7987
-4.40225
32.1822
-20.5141
1.57569
-4.07448
-60.29
-32.4938
-3.303
6.77322
33.1094
10.2083
-11.5359
-3.10775
-33.3009
-32.8981
-4.49576
32.7088
-1.90538
8.94232
-1.40279
-1.0657
-12.531
-30.628
-13.4478
11.9077
-7.4619
-33.1677
18.0399
19.5713
-9.44558
16.5666
-1.10934
-10.9981
32.1991
-1.54044
-0.497984
2.11012
-17.4628
-5.12299
1.14042
-0.153868
-26.2413
-33.0462
-4.93826
8.5815
-1.03342
-1.63125
14.0408
-20.2718
19.7755
-58.8293
-9.17818
36.2636
17.5673
2.76742
-1.13281
44.9337
-31.8267
-33.5058
13.1838
-31.3223
6.99206
-12.1073
-1.14605
-4.79615
11.3719
-9.95745
50.9783
-11.5244
-7.26593
5.94784
-6.59031
10.887
11.8884
-31.3329
-18.6961
6.85077
52.9811
4.19552
21.6505
0.554935
-16.6011
21.0287
12.8612
-13.556
5.84775
17.8837
-2.58446
-19.491
-7.19092
1.90261
3.72753
-7.39809
-38.5587
-33.1232
4.53815
-12.5395
56.9557
13.436
-35.6911
-6.79913
-31.0385
-47.8017
-4.43351
21.2875
0.126992
-24.3777
8.08062
10.9873
-1.38884
-10.0804
-35.3218
6.53236
-1.51985
14.4251
4.25759
-25.5547
-30.6065
6.28126
14.6169
-11.3802
4.37734
-8.43946
-10.6853
41.1463
12.4069
-32.7396
19.3069
-1.80858
-21.3728
9.72093
-31.397
-29.9053
-17.3263
11.5431
-0.314071
20.8455
-29.5464
10.6774
-32.7183
-45.8018
-10.1176
50.5298
-16.1706
2.43758
19.7547
10.2285
-30.6828
19.9884
-1.62236
8.09692
-29.7977
1.52423
-26.4546
-2.47364
43.685
15.9646
10.3704
-7.9339
-52.1879
-24.6382
-23.7553
0.519711
-0.993804
51.0416
-33.6426
10.0425
-11.6902
18.3481
-9.83772
-14.8414
16.5416
13.4706
-8.70778
-3.13253
-4.01143
60.2513
-22.7292
9.9195
-1.3899
10.7035
-6.08753
45.3935
-5.90504
-33.5359
-18.1052
53.0957
14.3635
-6.5492
-15.2033
-23.8434
-6.17965
-11.586
-30.0001
-9.91885
9.14074
10.204
-3.55314
-0.214054
46.5947
16.7195
44.2259
22.1877
22.374
-32.3165
-20.7833
-2.41437
-1.87107
-34.3155
13.6121
-31.7007
4.93931
-29.0812
-9.65951
-9.35708
-2.50924
-42.2409
2.30038
-17.6685
-30.7859
-33.0537
1.08994
-2.43205
-32.9596
-5.39559
-0.613837
12.4103
-8.55597
-1.84678
-15.5221
-15.4288
-17.4647
-11.4172
34.6392
-22.1875
-3.69444
-10.0376
16.14
-38.494
-2.57008
-2.50205
-0.775483
-6.71923
6.8131
3.82071
39.8272
-29.0691
14.5929
-35.6716
6.42643
-2.53312
-6.12539
-6.80502
-24.6993
-3.42943
-25.0882
-34.0886
-31.8795
-35.7267
-1.44114
-18.6116
-6.06542
-34.7579
-10.521
-33.7832
-3.3655
13.7177
14.5152
9.21764
21.7531
-34.7741
-30.0527
-26.0149
0.718655
50.5102
-33.898
-24.6347
-2.47343
-35.1326
29.675
19.6528
8.58497
15.8677
-30.6264
-4.46344
12.103
-8.3127
13.3663
-33.1138
-12.2739
-12.9036
-18.7117
-6.64101
-4.77341
-35.4706
12.4494
-22.6566
-19.1611
-12.4243
34.6245
-11.2423
-8.606
-21.9444
-22.7057
27.1476
-34.0625
-15.3395
-33.8284
1.65415
-33.0919
-0.108768
-5.42407
35.9152
-12.4503
-33.5569
9.87538
-4.86686
24.2881
8.9458
-3.13929
6.90277
-32.1114
-1.58505
1.06935
-11.631
-11.5063
17.5659
-0.747135
16.8815
-3.6642
-5.94449
8.56822
-27.9563
9.94751
8.12304
-32.6074
-36.3743
10.3165
25.3254
8.27252
-15.9308
-2.82325
-50.7212
7.62272
-0.430881
6.1368
-1.68493
15.3116
22.3566
22.8413
-6.78341
-12.0007
9.37723
-24.0582
-24.8177
-32.5124
-34.9499
-32.9802
-35.095
4.60175
8.88456
5.85789
-16.3858
-7.54682
-2.84368
-4.26885
11.5273
-4.78216
-37.3688
-3.04044
-23.9864
-4.49384
1.39822
10.3958
12.6343
11.3499
2.44379
-32.9166
-27.9342
2.66748
-79.7865
23.6055
-8.93612
-13.0306
11.2102
-1.97969
11.6449
22.7909
-23.1873
-29.0222
11.241
9.15686
-32.6812
-30.098
11.7806
-2.99618
-26.7554
-6.27125
13.8167
-19.7918
21.9364
-1.69707
-4.55756
-9.57529
-26.3281
30.6706
35.8821
-76.2832
-27.6758
-25.1084
46.722
12.824
-0.206959
32.0537
-75.4003
33.2321
-34.1066
32.8708
-8.10708
-0.911632
5.36312
-34.7749
-1.25769
19.0153
-54.0499
6.54551
-9.63377
-3.23269
0.211499
-27.4056
-34.812
-2.79423
-6.54879
-0.504892
-46.9609
-33.9979
-6.04912
-2.77827
-3.17012
-27.6915
-6.77537
23.646
-0.579593
-21.5107
-25.8328
25.9859
-34.3252
13.0585
6.56212
8.00958
7.14642
-21.9744
17.1152
-0.682011
-28.1609
21.0713
-9.33457
3.13682
-2.03678
12.4075
-11.9413
-56.024
-4.67166
-2.01818
-32.5746
-10.6335
-78.1225
-16.1324
-24.6191
35.5933
7.89229
-4.27909
-7.40699
17.9545
-32.6312
-4.80056
-16.5091
-12.1989
-16.1403
0.332394
11.8531
10.967
-19.2676
3.35159
-0.366869
-3.14202
37.7787
-32.3665
-33.3984
-7.16026
-6.58712
-26.63
-5.04152
-66.1672
-4.96739
0.23841
-31.398
-30.1265
-10.5458
-3.44102
10.8574
-34.7983
11.4326
-11.9291
-28.93
-38.0779
-6.61534
-0.120443
16.417
8.13508
-0.724365
49.5393
-4.11577
8.73256
-4.07441
-0.749336
10.2458
21.1112
-10.2233
-22.4801
-32.2722
-34.2207
-1.21725
22.4452
1.12715
-1.09083
8.71201
-16.5845
11.4665
-29.343
-10.5215
-9.17777
13.4865
0.775132
-28.0951
-1.05504
-34.2435
-20.7698
-10.3117
-3.22667
-1.87081
-8.72223
-79.4502
-2.96153
-17.5209
-40.6277
-3.88558
1.39729
11.2069
-7.90911
-0.327894
24.2555
1.36504
13.2189
-7.1839
-0.239323
-34.9383
-8.03977
-7.89145
-13.0464
-8.67849
-29.6931
-28.1258
-13.0658
2.00487
20.4499
-28.4436
-2.04609
-32.2288
-35.3896
-2.88105
-14.9124
-8.25592
-10.2896
27.5447
39.6859
-34.2665
-34.4635
-7.64594
-8.57192
-11.8894
6.99785
-2.32604
-20.3503
-12.4955
-9.54934
-14.8613
18.5685
-25.1275
-14.5907
-33.1808
2.08884
10.5002
20.9339
-85.5437
-0.249307
-12.7379
0.550465
0.939837
-15.5874
11.0761
-5.89994
-22.5515
-33.8475
11.3612
-10.0291
-3.12993
-5.75516
10.3569
-6.16564
31.5074
11.1893
-32.5028
8.16306
38.9014
6.04596
-8.09709
-4.19132
-33.3724
30.836
8.09847
9.13302
-28.1009
11.5943
37.0851
3.34816
13.7506
-1.75413
-28.1956
23.6687
12.9476
-15.2375
-29.5868
-34.8156
1.61373
-0.734691
9.87873
-33.4473
-11.4322
-47.6846
-1.02788
-1.46252
4.91524
12.763
-7.84699
-32.5906
10.0719
-35.2265
-10.0372
10.4898
-29.8815
-4.04739
-34.4522
4.29382
5.03367
-28.339
25.1277
15.2558
-7.39722
46.5701
-5.63278
-31.3937
-19.5697
-33.0402
-0.337195
14.4857
-8.94162
-5.55586
14.5262
-2.54652
11.4662
7.51591
-15.1674
-31.8205
-30.0982
-6.38038
41.4207
-11.2787
-23.5369
-2.57101
3.35304
13.6359
10.2247
-21.915
-11.7371
-6.72025
46.4784
-33.8735
16.7553
-8.67018
-1.96788
7.15325
-10.5962
-3.00918
25.1297
-2.20308
-2.48927
11.7193
8.68844
-16.2639
6.25011
9.98273
-32.6243
-0.587913
-5.90366
-23.3773
-33.6613
4.54203
-32.8209
-31.3498
-3.07886
-23.9357
21.1728
-18.0571
-10.1447
-14.1425
5.75511
12.103
6.98101
0.270329
10.9299
-6.67804
-5.72637
7.73078
-1.3616
-13.567
14.5207
-34.3619
-55.4718
21.7063
1.4581
4.73322
18.1658
-15.2829
-21.6697
-9.1293
-19.8509
9.86464
-3.14829
18.3323
63.4179
-29.4422
-16.2002
0.00920732
12.5835
5.11524
-6.15458
-1.68777
-23.2107
-8.65749
-31.9597
-30.6662
-10.0029
27.9282
26.6625
4.58538
3.80871
-32.2648
10.8743
57.2597
-32.7601
-27.7568
-4.35171
-33.7281
-0.573175
11.8522
1.04149
32.9962
-24.4381
10.5973
-18.9387
11.799
-30.5732
-4.31888
40.2265
-39.7594
6.06204
-34.7824
-27.2385
-12.1102
-3.3645
3.44496
7.47327
-34.2723
-10.0497
14.7315
-2.23724
-32.4903
-15.6731
5.1591
-35.065
10.1018
31.3353
-27.9259
-10.2346
2.61782
11.705
59.9022
-9.85408
21.4279
10.3397
36.5666
15.1274
-34.4424
-21.9664
-0.0290787
-2.29476
1.44108
-0.782092
11.4049
-3.09076
-33.2583
-3.91849
-9.46285
-26.4536
2.7003
-7.30856
-32.6603
-2.99678
4.34473
-16.3704
-13.8222
6.30189
-0.763579
12.0602
-28.6646
-1.00608
9.86137
-25.4534
-5.26843
-2.44041
-3.17845
-2.58613
-6.84272
-5.98877
-35.6006
-3.64369
-11.4827
-34.1126
-51.1437
-12.3881
5.13091
-7.01426
-7.14572
-31.7586
14.9967
1.5788
8.33238
46.1269
-2.9663
21.42
-10.22
-1.0294
8.89787
-27.5514
-14.0896
26.0867
-20.2892
-15.7121
15.3807
-28.5735
-28.1274
12.9194
-31.8275
-17.6571
11.9965
-10.2322
-2.6438
-1.77477
-32.9369
-14.3782
-47.7885
1.06061
-1.34128
-8.78924
-17.2456
-33.0982
-11.7977
27.6553
-26.7317
-0.167105
-11.7676
-11.2686
-34.2969
-2.36383
1.17132
-32.1581
-35.9453
11.6396
8.75544
2.55934
-9.54087
-12.2061
-27.593
29.8855
-63.5782
14.5107
-17.7251
9.64205