/*--------------------------------*- C++ -*----------------------------------*\
  =========                 |
  \\      /  F ield         | OpenFOAM: The Open Source CFD Toolbox
   \\    /   O peration     | Website:  https://openfoam.org
    \\  /    A nd           | Version:  7
     \\/     M anipulation  |
\*---------------------------------------------------------------------------*/
FoamFile
{
    version     2.0;
    format      ascii;
    class       surfaceScalarField;
    location    "250";
    object      phi;
}
// * * * * * * * * * * * * * * * * * * * * * * * * * * * * * * * * * * * * * //

dimensions      [0 3 -1 0 0 0 0];

internalField   nonuniform List<scalar> 
22555
(
0.00306622
-0.0686008
0.0945245
-0.0289885
8.36579e-05
0.00191015
-0.000215759
-0.00177751
-0.0223555
-0.0035062
0.0227768
0.00308481
0.00463436
-0.00334547
-0.00504821
0.00375937
0.0696148
-0.161384
0.0266331
0.0651348
0.00215681
0.0001535
-0.00222552
0.074229
0.0356773
-0.0772147
-0.0326923
0.0802722
-0.0629709
-0.0324301
0.0151294
0.0253237
-0.128259
0.104949
-0.00201362
-0.0103427
-0.0183744
0.0211621
0.0075549
0.0487753
-0.0776186
0.0879208
-0.059078
-0.0286538
0.00123342
-0.00762169
0.035042
0.00409032
-0.0472199
0.0110169
0.0321128
-0.175779
0.141632
0.034337
-0.000190702
-0.122822
-0.00956367
0.116074
0.0163195
0.00181943
0.000970714
-0.00614697
0.00335646
0.0713726
-0.0523328
-0.035706
0.0166665
-0.0865105
0.0576043
0.0561112
-0.0272051
-0.0280466
0.0212075
0.068642
-0.0618027
-0.0306339
-0.0724778
0.032355
0.0707567
0.00554635
-0.00643838
0.00694723
-0.0060556
-0.115502
0.13704
0.128137
-0.149674
-0.00748914
0.00738446
0.0233223
-0.0232177
-0.00246298
0.00124959
-0.0009957
0.00220876
-0.048095
-0.0817846
0.0128485
0.117031
0.0417427
0.0461033
-0.0350919
-0.0527528
-0.000290802
-0.00362994
0.0018046
0.00211638
-0.0789954
0.0171148
0.0135721
0.0483084
-0.0644497
0.0624329
0.0893062
-0.0872893
-0.0513557
-0.0824727
0.0612618
0.0725666
-0.0684813
0.0599765
-0.00459695
0.0131018
0.11561
-0.097293
0.0845361
-0.102853
-0.106743
-0.0756911
0.0881807
0.0942552
0.00308516
0.0851271
-0.0819255
-0.00628679
0.00520947
-0.00467317
-0.00548542
0.00494914
0.185242
-0.0470455
-0.152023
0.0138271
0.112858
-0.140777
-0.0670201
0.0949389
0.0710543
-0.03586
-0.149901
0.114707
0.0928845
-0.0443361
-0.116686
0.0681425
-0.0446975
0.0577795
0.0220559
-0.0351379
-0.0436786
-0.0489467
0.0577789
0.0348461
0.115972
-0.112825
-0.00596354
0.00281623
-0.100953
0.140932
-0.0426147
0.00263624
-0.006123
-0.0191358
0.0175052
0.0077536
0.0692024
-0.059054
0.0475533
-0.0577016
-0.0614474
-0.0477342
0.0838002
0.0253821
0.0167706
-0.100172
0.057433
0.0259684
0.00451007
-0.00582977
0.00770202
-0.00638121
-0.00246675
0.00306929
-0.000846792
0.000243678
0.0496841
0.1701
-0.115165
-0.10462
-0.00492792
-0.0137077
0.0115336
0.00710219
0.0827
0.0427579
-0.0772977
-0.0481608
-0.00642503
0.00680152
0.0173247
-0.0177012
-0.0731507
0.00329531
0.0747827
-0.00493044
0.0307102
-0.0623235
0.0539313
-0.0223179
0.0615303
0.0527885
-0.0605668
-0.0537522
-0.0128576
0.0144477
0.0203448
-0.0219348
1.49382e-05
0.0014891
-0.00196226
0.000459073
0.15668
-0.0916047
-0.0153911
0.0258693
-0.0123024
0.00910357
-0.0226705
-0.0116076
0.0454787
-0.0289427
-0.00492858
0.0603021
0.0586371
-0.0676052
-0.0513344
0.177418
-0.0139656
-0.0236374
-0.139814
-0.00183383
-0.00197388
0.00194676
0.00186012
0.0405123
0.0401962
-0.0508195
-0.0298879
-0.166573
0.10762
-0.00549859
0.0644518
-0.0300742
0.0946362
-0.0526547
-0.0119075
-0.00469316
-0.00437474
0.00492369
0.00414502
0.00106243
-0.00486119
-0.022638
0.0264367
0.00711939
0.00181462
-0.0063252
-0.00260932
0.0640209
0.0820851
-0.0381832
-0.107923
0.133136
-0.0449866
-0.0835416
-0.00460849
0.0679076
-0.116496
0.105868
-0.0572789
0.0275345
-0.025494
0.102579
-0.104619
0.0251354
0.0492678
-0.0114317
-0.0629717
-0.0532199
0.144773
-0.119433
0.0278799
-0.00825346
0.0021031
0.000204931
0.00594505
-0.0685172
0.0110571
0.0577047
-0.000244739
0.04092
0.1468
-0.1234
-0.0643202
-0.0356963
0.0199231
-0.00407704
0.01985
0.00973632
0.00662018
-0.00810033
-0.00825479
-0.00250499
0.0137332
-0.0130118
0.00178332
-0.00452264
0.00509355
-0.000570966
0.0183106
-0.0216289
-0.0252404
0.0285587
-0.0246842
0.0169618
-0.0247498
0.0324723
-0.0316747
0.0109094
-0.000392211
0.0211574
0.133324
-0.141622
-0.0059245
0.158904
-0.0154016
-0.09253
-0.0509724
0.0223872
0.0352439
-0.0201067
-0.0375246
-0.0229642
-0.0408803
0.0349488
0.0288954
0.0955888
-0.0628729
0.106128
-0.138843
-0.036958
0.0409552
-0.0433901
0.039393
-0.0028883
0.00167332
-0.000896929
0.00211149
-0.0216352
-0.0259551
0.0331355
0.0144548
-0.115474
2.68603e-05
0.0625916
0.0528558
-0.00802163
-0.0154242
0.0221979
0.00125074
0.054772
0.0571565
-0.0562024
-0.0557258
0.000591439
0.00161461
0.00483119
-0.00703462
0.00197487
0.00133769
-0.0012934
-0.00202051
0.057934
-0.107287
-0.0753652
0.124718
-0.11829
0.0386083
0.0938886
-0.0142068
0.0270413
0.0268045
-0.0254792
-0.0283664
-0.00734602
-0.0223652
-0.0724126
0.102124
-0.13953
0.0127486
-0.0232844
0.150065
0.0418343
-0.0475228
-0.0677898
0.0734782
-0.00687139
0.00059138
-0.000121991
0.00640203
0.00200873
-0.00119206
0.000917477
-0.00173432
-0.0850815
-0.0425564
0.0851967
0.0424411
0.123627
-0.10481
-0.00731075
-0.0115057
-0.0532785
0.000506195
-0.00291444
0.0556867
-0.00506861
-0.0704223
0.000183456
0.0753073
0.00745854
-0.0568558
0.00603439
0.043363
0.0282006
-0.0352423
-0.00595212
0.0129937
0.0878473
0.0496705
-0.0484982
-0.0890196
-0.00642822
0.00662177
-0.0046441
0.00445263
-0.00874638
0.0116897
-0.100036
0.0970926
-0.0483125
-0.00559598
0.00447281
0.0494362
0.10263
-0.0502088
-0.104957
0.0525348
0.0446628
-0.0849709
-0.135471
-0.000824127
-0.00069395
0.0027215
-0.0012039
-0.00297554
-9.05992e-05
0.00442366
-0.00135717
-0.062504
0.0304813
0.0586199
-0.0265984
-0.00917692
-0.0389894
0.0219156
0.0262547
0.0843492
-0.10644
-0.00559024
0.027681
0.023483
-0.0348165
0.00774791
0.00358564
0.0287371
0.0146611
-0.108854
0.0654558
0.120109
0.0225008
-0.0989102
-0.0436997
0.04285
-0.0562859
-0.0389257
0.0523615
0.0222422
-0.0495646
0.0468519
-0.0195296
-0.0355399
0.000990686
-0.00308695
0.0376359
0.0508935
0.073866
-0.0536103
-0.0711484
0.0387791
0.035844
-0.0533429
-0.0212801
0.00213688
0.00094592
-0.00226307
-0.00081907
0.0588301
-0.0402542
-0.00476782
-0.013808
0.0718054
-0.0527383
-0.00666053
-0.0124062
0.113724
-0.107316
0.0614561
-0.0678639
-0.0658353
-0.0500681
0.0396032
0.0763001
0.0121905
-0.0298317
0.0203892
-0.00274845
-0.00202246
0.00581792
0.00552567
-0.00932097
0.0273962
-0.0216272
-0.0908505
-0.0901619
-0.0207889
0.0126403
0.0983174
-0.0039578
0.0780543
-0.127316
0.0111895
0.00492861
-0.0105722
0.00561413
0.0255171
-0.0341314
0.00300027
0.0132323
0.127055
-0.0929692
-0.0473197
0.0341106
-0.0704252
0.0620865
-0.0257712
0.00293534
-0.00550708
0.00598175
-0.00340937
-0.0229843
0.0487939
-0.0583095
0.0324998
-0.0271416
-0.0883928
0.0873793
0.028155
0.0403392
-0.0113509
0.000933055
-0.0299214
0.0876093
-0.0871588
0.0481888
-0.0486392
-0.0364133
0.00296752
0.02217
0.0112758
0.0864332
0.00966694
-0.0274436
-0.0686565
0.00107075
0.00307115
-0.00213523
-0.00200735
0.048176
-0.0707932
-0.0391088
0.0617261
-0.128807
-0.0217566
-0.00853561
0.159098
0.0371044
-0.103067
0.113176
-0.047212
0.0445276
-0.0498823
-0.114292
0.119647
0.00467764
-0.00583916
0.000844216
0.000319196
-0.0840276
0.0640232
-0.0473989
0.0674031
-0.119552
0.0979151
0.0241565
-0.00252019
0.0108137
-0.133367
-0.0169778
-0.00407985
0.00817732
0.0425245
-0.0466223
0.0259246
0.142624
-0.0529395
-0.00363486
0.00427091
0.000766934
-0.00140347
0.0509628
-0.0406911
0.0454013
-0.0556724
-0.0349613
0.0186268
-0.0519274
0.0682618
0.00569393
-0.00582144
-0.00198607
0.00211273
0.125839
0.0579496
0.0180687
-0.201858
-0.151168
0.0160303
0.131656
0.00348078
0.000422993
-0.00292067
0.00220695
-0.041427
-0.133401
0.112424
0.062408
-0.0121695
0.0208916
0.0289965
-0.0377199
0.00149943
0.0500443
-0.0580836
0.00654
-0.0346078
0.079152
-0.0955737
0.0510309
-0.00276598
0.0388428
-0.0121568
-0.0239198
0.0261129
-0.0344796
0.0442437
-0.0358772
0.00077314
-0.00226454
-0.00392694
0.00541985
-0.00513489
0.00258751
0.0328287
-0.0302817
-0.0847359
-0.0382128
0.00796082
0.114988
0.0276683
-0.0154136
0.00605585
-0.0304028
0.070672
-0.0702411
0.029972
0.0391856
-0.01773
-0.0266631
0.00520757
-0.0121049
-0.0285958
0.0487567
-0.00805523
0.00368051
-0.00287819
-0.00523751
0.00443448
-0.00138863
0.000224071
0.0367349
-0.03557
-0.00882264
0.0315524
-0.0072461
-0.0154836
-0.00238362
-0.00717532
-0.0259812
-0.0255276
-0.0284784
0.0238609
0.0301451
-0.00251373
0.00305019
-0.00293197
0.00239502
0.123942
-0.0409869
-0.138005
0.0550491
-0.132179
0.0215302
0.0870328
0.0236163
0.0343653
-0.0382896
-0.021529
0.0254534
-0.115976
0.111173
-0.0177386
0.0225402
0.0926494
-0.0462097
-0.0313317
-0.0151076
0.0140123
-0.0209755
-0.0879368
0.0948992
-0.00429469
-0.00434599
0.00394795
0.00326385
0.0719466
0.0130574
-0.0882679
-0.0167604
0.0399654
-0.0364184
0.013213
-0.0393219
0.0618844
0.0212002
-0.0437632
0.0526339
0.0159401
-0.0926179
0.0240439
-0.00562261
-0.0406201
-0.00703578
-0.00215748
0.0714197
-0.00531231
-0.0639498
0.00099541
0.000241108
-0.00227731
0.0010417
0.0113344
0.0874452
-0.0886814
-0.0100982
-0.0944309
-0.074153
0.117647
0.0509366
-0.0483927
-0.10807
0.0571716
0.0992914
-0.0126383
0.103211
0.00365319
-0.0942255
0.0509972
-0.0646034
0.0627193
-0.0491131
-0.000460411
-0.0489629
0.029118
0.0203052
0.0147253
0.0385161
-0.0321243
-0.0211171
-0.0855926
0.0544629
-0.0993811
0.130511
0.095845
0.0637988
-0.136911
-0.0227332
-0.0586738
-0.0715901
0.068545
0.0617189
-0.0686934
-0.0861384
0.0550946
0.0997373
0.0889797
0.0139305
-0.0402136
-0.0626994
-0.0605156
0.0841562
0.061288
-0.0849285
0.0327501
0.0686348
-0.0323376
-0.0690474
0.118409
-0.0617263
-0.0869827
0.0302996
-0.00555182
0.00416856
0.00320307
-0.0234485
0.0406204
-0.0292762
-0.0400193
0.0549085
0.0331848
-0.0480741
0.000982239
-0.00528683
0.00563485
-0.00133031
-0.00339577
0.00207012
0.00132376
-0.0577467
-0.0535032
0.0287699
-0.0321811
0.024942
-0.0215307
0.00281201
-8.74819e-05
-0.00272365
0.127272
-0.000191801
-0.0419836
-0.0850965
-0.0357321
0.0457778
0.0584084
-0.0684541
0.0437861
-0.0442814
0.0441065
-0.0436111
0.00430107
0.06185
-0.0531346
-0.0130167
-0.0627399
0.05012
0.0433301
-0.0470333
0.0372343
0.026096
-0.0162969
0.0413353
0.0757529
-0.106516
-0.010572
-0.0198424
0.00183314
-0.00477434
0.0227844
-0.003486
0.00327705
-0.000728796
0.000937175
-0.0628891
0.0380121
0.0548547
-0.0299776
-0.0288718
0.0457777
0.00987542
-0.02678
0.0119088
0.00391836
0.0531443
-0.0110519
0.00425036
-0.0463428
-0.059334
0.0780081
-0.115967
-0.0150533
0.027908
-0.0300468
0.0171923
0.0226638
-0.0252573
-0.018461
0.0210545
-0.104458
0.135098
0.0272837
-0.0579234
-0.0283434
-0.0195116
0.0262261
0.0365882
0.0758021
-0.0917055
-0.020685
-0.0729035
0.081038
-0.0352761
-0.0300971
0.0401338
-0.0483647
0.0383293
-0.0424346
-0.0417391
0.0938269
-0.00965313
-0.0186449
0.0357341
0.0220963
-0.0579352
-0.0407432
0.0430988
0.0555798
-0.0727419
-0.134668
0.162311
0.0450997
-0.0325052
0.0130223
0.0393383
-0.0198554
0.0921027
-0.109201
0.0651676
-0.0480701
0.0035186
0.0458908
-0.0131828
-0.036227
-0.0636806
0.0215685
0.0711444
-0.0290322
-0.0207301
-0.00613208
0.0171416
0.00971942
0.0855406
0.0474676
-0.0711868
-0.0618212
0.00846068
0.0201452
-0.0588333
0.0302274
0.0749864
-0.0734476
-0.000438094
-0.0011008
-0.0630166
0.0501966
-0.0106173
0.0234371
-0.0132055
0.079944
0.0654489
-0.132187
-0.0326295
0.00132981
0.00405842
0.027242
-0.014943
-0.0847281
0.0788499
0.020821
0.00459102
-0.0205105
0.013423
0.00249643
0.0342601
-0.0630369
0.0403553
-0.0115789
0.0413941
0.067988
-0.0644787
-0.0449024
-0.00623107
0.00626915
0.0125298
-0.0125691
-0.000802974
-0.00797912
0.00878247
-0.0620188
0.0654094
-0.0222288
0.0188384
-0.00132524
-0.00112726
0.00245168
-0.0633669
0.103837
-0.0513985
0.0109279
-0.0174544
0.0134697
-0.0354769
0.0394617
-0.00922701
-0.115159
0.0501275
0.0742571
-0.0119243
0.111728
-0.0091083
-0.0906941
0.00254906
0.00643795
-0.00186784
-0.0709601
-0.011954
0.0632855
0.0196286
-0.0652042
0.0970518
-0.0972819
0.0654343
0.046051
-0.0484983
-0.0433949
0.0458423
0.0425521
-0.0664606
0.122587
-0.0986834
-0.0610693
-0.0738446
-0.0149283
0.149842
-0.0254845
-0.0411171
0.0365266
0.0300753
0.0178416
0.0678227
-0.0669531
-0.0187111
0.016291
0.057259
0.00511796
-0.0786678
-0.00346516
-0.0189994
-0.0285625
0.0510271
0.137211
-0.115241
0.0193655
0.00206229
0.00385651
-0.00223835
0.000116605
0.00408975
-0.00420699
0.088361
0.0710186
-0.150882
-0.00849861
0.0062651
-0.04457
0.0056756
-0.00204468
0.00368319
-0.00320497
0.00156773
-0.0785064
0.0723494
-0.0481978
0.0543549
-0.00256259
0.00305076
0.00410592
-0.00459317
-0.113907
0.107899
-0.0423849
-0.00384047
-4.90276e-05
0.0836919
-0.0846194
-0.0506472
0.0515745
0.00579044
-0.00619023
-0.00543356
0.00583458
-0.106688
0.109812
0.0280545
0.00675452
-0.0404738
0.0383497
-0.00463036
-0.00250913
-0.00139075
0.00305724
0.000842505
0.0670291
0.0801614
-0.0394292
-0.107761
0.0350867
-0.0284689
-0.0428769
0.0362593
-0.00450248
0.00948258
0.000229352
0.0405268
-0.0393131
-0.0300845
0.160148
-0.150527
0.0127685
-0.0223901
0.0911559
0.0491728
-0.0810652
-0.0592626
0.0132608
0.00192445
-0.0111697
-0.0040157
-0.0406667
0.129723
0.0676242
0.125156
0.015851
0.00126741
0.06122
-0.0528223
-0.0932891
0.0848913
-0.0280139
0.0217399
0.00759628
-0.00132237
-0.120347
0.0403004
0.120967
-0.00359746
-0.00271321
0.000768459
0.00553918
0.00557454
-0.040071
0.0323917
0.00210507
-0.0279121
-0.127132
0.0149138
0.14013
-0.0351822
-0.000786676
-0.0331454
0.0691144
-0.0117034
0.00746583
-0.0023121
0.00654858
-0.0503673
0.0488165
0.039865
-0.038314
0.0041243
-0.0327915
-0.0237077
0.0523749
0.041836
0.0162923
-0.0504132
-0.00771556
-0.04948
0.0175938
0.0687576
-0.0368712
0.000172133
-0.00340442
-0.00151707
0.00474961
0.0891911
-0.12349
-0.0724433
0.0915204
0.0242042
-0.110672
-0.00505298
0.0692036
-0.0415191
0.0249494
0.0217123
-0.0244794
-0.010986
0.0137539
-0.0743977
0.0157298
0.00371489
0.0549534
-0.0374369
-0.0111704
0.0246029
0.0240044
-0.0254229
0.0350293
0.0191635
-0.0924847
0.118418
-0.0390335
0.0131002
0.0103498
-0.0127967
6.52739e-05
0.00238142
0.0564679
-0.10456
-0.000352004
0.0241125
0.00831131
-0.0320718
0.056096
0.0146786
-0.0551446
-0.0156313
-0.0827492
0.0208536
0.0816819
-0.0197875
-0.0465083
0.0386076
0.0330361
-0.0500961
0.0244676
0.154584
-0.128956
-0.00428235
0.00119517
0.00083313
0.00225332
0.055565
0.0285721
-0.0545933
-0.0295439
0.0459024
-0.037054
-0.0201346
0.0112861
0.00176111
0.00530137
-0.00654203
-0.000520028
0.0303372
-0.0170976
0.0470614
0.0195053
0.0443759
-0.0739887
0.0101076
0.0335343
-0.0348022
-0.110204
0.111472
0.00145933
0.00548131
-0.135747
-0.0303607
0.143911
-0.0825575
-0.0309928
0.0961779
-0.0798901
0.0871839
-0.103471
0.0737514
-0.0412788
-0.0692993
0.0368264
0.013929
0.0226945
-0.020828
-0.0157955
0.119755
-0.0630381
0.0919732
-0.0107932
-0.0158955
0.00756562
0.0191233
-0.0700299
-0.0107831
0.0149803
0.0658327
0.0589865
-0.0100683
-0.0402968
-0.00862147
0.0261579
-0.0258111
0.0155558
-0.0159026
-0.0321069
-0.0489255
0.02756
0.0534725
-0.0485398
0.0570323
-0.0344581
0.0259649
0.00438759
-0.00643833
-0.0217219
0.0237726
0.0144708
0.0420868
0.00597402
-0.0625316
0.0476529
0.134596
-0.0851492
-0.0970989
-0.0473792
-0.0546136
0.0512
0.0507927
0.0120778
-0.100296
0.0121125
0.0761059
-0.0486983
0.104429
0.0294772
-0.0852074
0.0265066
0.0454462
-0.0292057
-0.0427469
-0.11138
0.104305
0.0723964
-0.0653233
-0.123469
-0.0438371
0.139394
0.00078284
-0.00564709
0.00124629
0.00361779
0.0486118
-0.0353005
-0.0417252
0.0284137
-0.0142919
0.00782663
-0.00674229
0.0132075
0.0231177
0.0361425
-0.023896
-0.0353642
0.0496759
0.00183189
-0.0980287
0.0465211
-0.0919084
0.0412501
-0.00891409
0.0595724
-0.0942561
0.0177301
0.0930388
-0.0165131
0.00386555
0.000477634
-0.00174327
-0.0025997
0.00446228
0.00513539
-0.00460317
-0.00499435
-0.0209953
-0.0376603
0.039127
0.0195285
-0.00119388
-0.0432591
0.0308924
0.0135606
0.0206903
-0.0059197
0.00670844
-0.0214791
0.0846895
-0.0881072
-0.0381872
0.0416047
-0.0418534
0.0255189
-0.0286053
0.04494
-0.0107258
-0.0110086
0.00189253
-0.0739219
0.108048
-0.0808305
0.0467038
-0.0731505
0.0401258
0.0617617
0.0915148
0.0382627
-0.0791818
-0.0505956
0.0256117
0.018828
-0.110058
0.0656185
0.0354434
-0.0789788
0.0668694
-0.0233339
0.00948142
-0.0103327
0.0213482
-0.0204969
0.00357018
-0.00079163
-0.00387332
0.00109546
0.0119157
0.0546859
-0.057287
-0.00931466
0.0808664
0.0320911
-0.0582772
-0.05468
-0.0579001
0.0730851
-0.0564055
0.0412201
0.00761338
-0.00959336
-0.00226218
0.00424214
0.00045931
-0.00135377
-0.00203131
0.00292563
-0.0636017
0.0998994
-0.0569477
0.0206499
0.0642568
0.0498904
-0.06315
0.0384184
0.0823894
-0.0487286
-0.0720794
0.088856
-0.0845197
0.0778382
-0.0821739
0.132444
0.0580547
-0.0661971
-0.1243
0.0361276
-0.0233595
0.00575682
-0.0185258
0.0147205
-0.00596714
-0.0273547
0.0186011
-0.0646086
0.0214782
-0.0312671
0.0609646
0.0104479
0.000395773
-0.0718083
-0.120413
-0.00267879
0.134452
-0.0113602
-0.104797
0.127778
0.0691213
0.00418194
-0.00422433
-0.00230701
0.00234976
-0.0769975
-0.0234963
-0.00370963
0.104202
0.0854395
-0.0577403
0.0684787
-0.00860509
0.00158523
0.00675181
0.000268001
0.00620385
-0.000589426
-0.00557616
-4.00112e-05
-0.0934019
0.0616016
0.0682675
-0.0364667
-0.0518434
0.105467
0.0535245
-0.107148
-0.0352436
0.0298303
-0.0793226
0.0179678
-0.0105209
-0.0470433
0.0395984
-0.116253
-0.00662842
-0.0031962
0.126077
-0.00297546
0.00229759
0.00420504
-0.0035271
-0.00520132
-0.00182306
0.0048591
0.00216492
-0.000503986
0.00437728
-0.00428736
0.00041553
-0.0334647
0.0178244
-0.0210516
0.0366921
-0.041402
0.0383335
-0.00253848
0.00560704
0.124365
0.0151622
-0.126954
0.116066
-0.0487101
0.0491892
-0.116546
0.0429391
-0.0142862
0.0191656
-0.0478169
0.119688
-0.0189698
-0.0922746
-0.00844413
0.0798583
-0.108793
0.114563
-0.085629
-0.0314986
0.018412
0.0146765
-0.00159016
0.0299161
-0.0313035
0.0628301
-0.0614426
0.0309012
0.147149
-0.0499583
-0.128092
0.00275207
-0.00392097
0.00332467
-0.00215665
-0.0324091
0.05364
0.123145
-0.144374
-0.0283752
0.0538641
-0.0491514
0.0236625
-0.127718
-0.0500031
0.0573738
-0.0839266
0.108629
-0.112348
0.0876449
0.0681137
0.100718
-0.0666798
-0.102152
-0.0474744
0.128734
-0.121933
0.0406722
0.00331135
-0.00263708
-0.000246852
-0.00042606
-0.00351436
-0.00805349
0.00648349
0.00508679
0.0205481
-0.0349779
-0.0900286
0.00304264
0.00350328
-0.00382343
-0.00272282
-0.0738418
-0.0266646
0.0698725
-0.00452817
0.00660361
-3.2612e-05
-0.00204234
0.0152052
-0.09015
-0.018887
0.0938307
-0.0430604
0.054486
-0.00605349
-0.00537206
-0.0768183
0.0813799
-0.0711442
0.0665823
0.122775
-0.0249246
-0.105211
0.00736141
0.0887415
-0.0968626
0.0534335
-0.0453133
0.0464982
-0.0413825
-0.119023
-0.00212007
0.00420441
0.00400991
-0.00609462
0.00116148
-0.000375746
0.00252678
0.0414173
-0.117627
0.077025
-0.000815291
-0.00176642
0.00262003
0.00189779
0.0110328
0.00594348
-0.000344008
-0.0166323
0.121713
-0.114119
-0.0293518
-0.036411
0.0456538
-0.0327669
0.0235244
-0.0980134
0.0719573
-0.0292089
0.0552646
-0.0155374
0.0486629
-0.0470544
0.0139289
-0.0199149
-0.0422427
0.0819139
-0.0197562
0.0363248
-0.0110621
0.00941785
-0.0346814
0.029321
-0.0455981
-0.0148121
0.0310869
0.00438536
0.0486679
0.00468765
-0.0577407
0.0619717
-0.0669682
0.0376257
-0.0326292
0.0406223
-0.0413658
0.134579
-0.133835
-0.0569898
0.0722725
0.0554682
-0.0707541
-0.0250574
0.0242216
-0.00136408
0.00219982
-0.0234885
-0.0327734
0.0312063
0.0250545
0.0613968
0.0201759
-0.0396804
-0.0418923
0.0031138
0.0211354
-0.018154
-0.00609627
0.0189352
0.00842477
-0.00460313
-0.0227569
-0.0649083
-0.102394
0.0692883
-0.0228694
-0.0516162
0.0157708
0.0587138
0.00861037
0.00103887
0.0179405
-0.0275882
0.0124638
0.0215598
-0.0195438
-0.0144797
0.106695
-0.105634
0.0559258
-0.056986
0.0119141
0.0395308
-0.000157272
-0.0512878
0.0107023
0.108577
-0.104619
-0.00106086
-0.0622654
0.0663936
0.00522178
0.0129103
-0.0136827
-0.00444936
-0.0331586
0.022948
0.0214608
-0.01125
0.0492416
-0.0314954
-0.0413396
0.0235936
0.093044
0.00812761
0.0710348
-0.172206
-0.0226657
-0.126272
0.0244812
0.124456
0.045395
-0.00501048
0.00569708
-0.0460788
-0.0443485
0.0658039
-0.072298
0.0508426
0.00153628
-0.00774446
-0.000663306
-0.00180772
0.000715954
-0.00142642
0.00251799
-0.109026
-0.028539
0.108539
0.0290258
-0.105021
0.14962
0.0133356
-0.00209564
0.00288173
0.00214353
-0.00292837
-0.00968388
0.00105335
-0.0611645
0.0697958
0.0460081
-0.0821078
-0.0136773
0.0497768
-0.0220227
0.134401
-0.162044
0.0496656
-0.0926616
0.0076719
0.092615
-0.00762512
0.0256505
-0.0295682
0.00418432
-0.000266019
0.11284
0.0205005
-0.132177
-0.00116417
-0.0796009
-0.0510128
0.0842947
0.0463193
-0.115954
0.156473
-0.0467762
-0.0790135
0.0199218
0.0813304
-0.022239
-0.00268535
0.0384707
-0.00285443
-0.032931
0.0317536
-0.0264757
-0.0256256
0.0203477
0.145686
-0.0354328
0.0192665
-0.129519
-0.0607646
-0.0549588
0.0431292
0.0725943
0.0745927
-0.0985125
0.0925248
-0.068605
0.146513
-0.0362654
0.00879456
-0.119042
-0.00402827
0.0429791
0.0452676
-0.00469873
0.00186333
-0.042432
-0.00379747
-0.0147161
-0.00109011
0.0196024
0.0397613
-0.0412083
-0.0409189
0.042366
0.0293195
0.118487
-0.103278
-0.00205219
0.000665934
0.000954721
0.000430964
-0.0315366
0.0576865
-0.135176
0.0210832
-0.0335664
0.018183
-0.00569955
0.0981115
0.0925052
-0.0961571
-0.0944593
0.0192259
-0.0155552
-0.0576338
0.0539637
0.0331459
-0.0900608
-0.0210193
0.0779332
-0.00757425
-0.0728597
-0.0103128
0.090747
0.0868305
-0.058703
0.059029
-0.0871564
-0.122313
0.13339
0.0198245
-0.0168923
0.0857475
-0.0826396
0.0137845
0.0113968
0.0507951
-0.0477211
0.0258997
-0.026346
-0.0195888
0.0200351
0.0276792
0.0208315
-0.025393
0.0693215
-0.042216
-0.0601514
0.0330459
-0.0756691
0.0575495
0.0351797
-0.0170596
-0.0895085
0.101199
0.0818763
-0.0935667
0.00255039
-0.029115
0.00580395
0.0207661
0.106623
0.0557586
-0.0546323
-0.10775
-0.0490432
0.0381365
-0.0073555
0.0182622
0.00324828
-0.0873925
0.0839465
0.000197946
-0.00270876
-0.000564351
-0.000365541
0.00363871
-0.103143
0.00186886
-0.00170204
0.102976
0.00452504
0.0190468
0.00380081
-0.0273724
-0.0301215
0.086325
-0.12799
0.0717857
0.0258135
-0.0636394
-0.0244674
0.0622932
-0.0934743
0.0590136
-0.0198533
0.0543139
-0.0770905
-0.0212572
0.0456091
0.0527384
-0.0859547
0.0678904
-0.0347376
0.0528023
0.139535
-0.0843561
-0.161785
0.106605
-0.0375524
0.0416544
0.037293
-0.0466763
-0.00241317
0.0688268
-0.0197373
-0.167223
0.0439311
0.124752
0.0125528
-0.0205402
-0.0284258
-0.0704791
-0.0164555
-0.00145835
0.0707839
0.136467
-0.102292
-0.10496
-0.000517664
-0.00494601
0.0062467
0.0204268
-0.0162685
0.02351
-0.0583373
0.001339
0.038557
0.0184413
-0.014128
0.0449098
0.0121065
-0.0428884
0.0806402
0.0836024
-0.10945
-0.0547915
-0.0340423
0.0379912
-0.0185221
0.0145732
0.0378303
-0.00998333
0.0233326
-0.0511797
-0.0355466
-0.0162475
0.0331492
-0.00077753
-0.00306334
0.000984545
0.00285672
0.0811717
-0.142743
-0.0442135
-0.0336364
0.0271166
0.0507334
-0.0198819
0.038703
-0.0868574
0.0680367
-0.00899319
0.050862
0.0655241
-0.0632853
-0.053101
0.107502
-0.0904913
0.0521915
0.0112993
-0.0182137
-0.00737757
0.0187259
-0.118607
-0.00256443
0.102446
0.0783742
0.0691976
-0.056057
-0.00152064
0.00743798
-0.00788817
0.0019722
-0.102176
0.0781126
-0.0336588
0.0577221
-0.0781212
0.11529
-0.0623273
0.0251584
0.0289851
-0.132727
0.114103
-0.0103605
0.0538785
0.0361821
-0.0196036
-0.0704566
-0.050172
-0.00395757
0.0295733
0.0245587
-0.00104476
-0.00030775
-0.103396
0.104749
-0.022659
-0.0154126
0.0180267
0.020045
-0.00663576
0.0133036
0.0211867
-0.0278552
0.0835021
0.00182247
0.024135
-0.10946
0.00710292
-0.0165006
0.00970115
-0.000300543
0.0973835
-0.0646063
0.0521415
-0.0849197
0.0396016
-0.0231021
0.0215536
-0.0380533
-0.0641861
0.0271776
-0.0411128
-0.0324748
0.0302112
0.000932173
0.00133152
0.0493015
-0.0980476
-0.0383742
0.0871203
-0.0347831
-0.0136348
0.0343932
0.0140248
-0.047325
-0.0270687
0.00579403
-0.0227057
0.00469462
-0.0144638
-0.150065
0.00393545
0.123463
-0.000903693
0.00186624
-0.0596681
0.0587055
0.00535466
0.00418083
0.000201148
0.0697363
-0.0646763
0.0755807
-0.0400939
0.0183179
0.0418515
-0.0200759
-0.000229268
0.00242407
-0.000220231
-0.043013
0.0476898
-0.0173771
0.0127003
-0.116037
0.0548541
0.0962264
-0.0350437
-0.0239848
0.019764
0.015963
-0.0117421
0.125649
0.0496261
-0.0166689
-0.158606
0.00271184
-0.00165075
-0.0010598
0.151424
-0.0356173
-0.0232559
-0.0925504
-0.069281
0.0524868
0.00121889
0.0155784
0.0517252
-0.0457952
0.0493803
-0.0553105
0.016559
-0.00416196
-0.0215701
0.00599558
-0.00184758
-0.00907606
-0.00907572
0.00891576
-0.00835176
0.00850749
-0.0625971
-0.0602829
0.0719741
0.0509059
0.0408021
-0.0402064
0.025555
-0.0118289
0.12348
-0.137207
-0.0421335
0.0324672
0.00877918
0.000888055
0.00036059
0.00252862
-0.00168024
-0.00120855
0.0662558
0.0476337
-0.086727
-0.0271624
-0.0831241
-0.0556975
0.0614032
0.0774189
-0.133205
-0.00642505
0.0409783
0.0986515
0.00401041
-0.00193909
0.0039243
0.0226002
0.0250497
-0.0318643
-0.0157856
0.039263
0.044707
-0.0434565
0.0866003
-0.0931684
0.0949293
0.00919776
0.00634719
-0.0129891
0.141402
-0.048479
-0.143793
0.0508694
0.0487392
-0.0612548
0.0114559
-0.000752713
0.00275206
-0.00297333
0.000974594
-0.0775583
0.109521
0.0234331
-0.055396
0.0120878
-0.0153726
-0.0949083
0.0981931
0.0551479
-0.0707441
-0.0720462
0.0876424
-0.0260845
0.00965595
0.0245719
-0.00814348
0.0311651
-0.0953855
-0.0477346
0.111954
0.0287828
-0.0274773
-0.00972171
0.00841604
0.0161852
-0.0176435
-0.0417392
0.0431976
-0.0434757
0.0629205
0.0557793
-0.0752233
0.00571749
-0.00637123
-0.00502067
0.00567505
0.0381206
-0.048055
0.0303163
-0.0203821
-0.0634186
-0.0238963
0.0792952
0.00801862
0.0186132
0.0434855
-0.0429827
-0.019116
0.0163665
0.0475192
-0.0452725
0.0658748
-0.0559647
-0.0445249
0.0346149
-0.0626869
0.0666552
0.0732502
-0.0772179
-0.0600047
-0.011548
0.0641248
0.00742827
0.0181205
-0.0376368
0.068758
0.00277634
0.0642932
-0.0557951
-0.0112754
0.0104312
0.0168331
0.0455942
-0.0728585
-0.0284824
0.0249933
-0.032922
-0.0737338
-0.0755837
0.0759393
0.0733782
0.0740648
0.067602
-0.101531
-0.0401348
-0.0902764
0.0893189
0.0709077
-0.0699496
0.0489741
-0.0574844
-0.00216755
0.0106779
-0.0690742
-0.0814597
0.0748649
-0.00267247
-0.000579105
0.00249929
0.0689213
0.0833847
-0.112006
-0.0655311
0.0497074
-0.0229114
0.0387353
0.053249
-0.0267241
-0.0836187
0.0570937
-0.0754304
0.0171156
0.0817021
-0.0233871
-0.0408585
-0.020678
0.0423008
0.0192356
0.0108378
-0.130484
-0.0320294
0.132742
0.036619
-0.0279601
-0.0722471
0.0383047
-0.0385354
0.0684117
0.0638722
-0.0672983
-0.0649855
-0.0548741
0.0518012
0.01577
-0.0201873
0.0356616
-0.0312451
0.00317503
-0.00481159
0.0304048
-0.0287673
0.124636
-0.0227799
0.0582925
-0.0511285
0.13949
0.045918
-0.13428
-0.0115788
-0.0103357
0.0134012
0.00851327
0.086117
0.0953497
-0.0788726
-0.102594
0.0177417
-0.0040449
0.00112587
-0.0148228
0.126016
-0.054578
-0.161426
0.0899879
-0.0822699
0.0312179
0.0752901
-0.0242454
0.11894
-0.00940075
0.0249091
-0.00161628
-0.023549
-0.00805818
0.0332232
-0.045109
0.0365391
-0.0170498
0.0256198
0.0133861
-0.00902687
-0.00551824
0.00115879
0.184773
-0.0356279
-0.154642
-0.154618
-0.0414935
0.0325964
-0.0589015
-0.00919851
0.0703466
-0.00224653
0.037322
-0.0451583
0.0082288
-0.000392303
0.0034786
0.0531634
-0.00677718
-0.0498692
-0.00248455
0.00220599
-0.00115644
0.00143551
-0.00847541
-0.0102567
0.0131709
0.00556112
0.00717123
-0.0131071
0.0137626
-0.074874
-0.111426
0.136418
0.00153571
-0.00381593
0.00105065
0.00122669
0.037096
0.0329477
-0.0411928
-0.0288507
0.0134537
-0.00600542
0.0102933
-0.105653
0.119814
-0.00207381
-0.0677877
-0.0099339
0.00724246
0.00215269
-0.0280381
0.0635085
-0.0376219
0.00787677
-0.0185864
-0.00173059
0.0124394
0.00638884
-0.0542891
-0.103268
0.108706
-0.114675
0.0410959
-0.0351272
-0.0354675
-0.0447747
0.047291
0.0329514
-0.0704491
0.081983
0.000372203
-0.0523867
0.0537063
0.00461567
-0.00593531
0.0587087
0.0092881
0.00275098
-0.070748
0.00259362
-0.000920133
-0.00249333
0.000820158
-0.0587137
0.0621819
0.0123013
-0.00553727
-0.0728334
0.0239385
0.0544328
-0.0352837
-0.134105
0.00216585
0.0642055
-0.0406895
0.0738671
0.027739
-0.0416143
0.113725
-0.0998543
0.0314347
-7.13516e-05
-0.0428463
0.011483
0.0211999
0.0866622
-0.0853763
-0.0224872
0.0544565
-0.0510199
-0.087436
0.0839994
0.0523042
0.0959684
-0.0254979
0.0703751
-0.0633838
0.0728668
0.0890028
0.0166056
-0.00222522
-0.103383
0.0273863
0.0158295
-0.0244052
-0.0188105
0.105907
-0.0342612
-0.00938342
-0.0622603
0.0117802
-0.0276599
-0.137859
0.0625325
-0.0172118
0.0925383
0.0452478
-0.0663148
-0.0495445
0.0706115
0.147253
-0.0239222
-0.107301
0.000208627
0.00237273
-0.00258281
-0.00830107
0.0582531
-0.0570092
0.00705714
-0.0136516
-0.0491522
0.0224158
0.0403876
0.0445898
-0.0429312
-0.103139
0.101478
-0.087297
0.0450554
0.0924346
-0.0501927
0.042135
-0.063399
-0.104368
0.125632
0.1201
0.0284361
-0.121833
-0.0267043
0.0294246
-0.0932237
0.000197379
-0.0733151
-0.0103006
0.0691053
0.0145102
-0.110425
0.078982
0.0164996
-0.00188396
0.00065087
-0.00203032
0.00326299
-0.00570119
0.00908022
-0.00774149
0.00436263
-0.107646
-0.0575191
0.10497
0.0601946
0.00820811
-0.00735307
-0.00943568
0.00857991
0.0245203
-0.0169747
0.0126995
-0.0202451
-0.0623694
0.0308919
-0.0205706
0.0520482
-0.0852095
0.12924
0.0409488
-0.0849791
-0.102768
0.0738793
0.118079
-0.0435262
-0.0162708
0.0456689
-0.00168381
0.0367457
0.0757362
-0.110798
-0.0123506
0.0594359
-0.0339578
-0.0131275
-0.0319728
-0.0294317
0.05567
0.00573445
0.0173485
-0.0171584
-0.0233028
0.0231126
0.0077856
-0.0436538
0.0457292
-0.00986121
0.0309164
-0.0158251
-0.045523
0.0304312
0.0185608
-0.0337825
0.135321
-0.10694
-0.00784794
0.0495835
0.0909103
0.111827
-0.11431
-0.0884263
0.115872
-0.00389249
-0.13179
0.0198116
-0.0260175
0.0255824
0.0321888
0.0196338
0.0229516
-0.0163025
-0.026283
0.0403784
0.154275
-0.0920229