/*--------------------------------*- C++ -*----------------------------------*\
  =========                 |
  \\      /  F ield         | OpenFOAM: The Open Source CFD Toolbox
   \\    /   O peration     | Website:  https://openfoam.org
    \\  /    A nd           | Version:  7
     \\/     M anipulation  |
\*---------------------------------------------------------------------------*/
FoamFile
{
    version     2.0;
    format      ascii;
    class       volVectorField;
    location    "250";
    object      U;
}
// * * * * * * * * * * * * * * * * * * * * * * * * * * * * * * * * * * * * * //

dimensions      [0 1 -1 0 0 0 0];

internalField   nonuniform List<vector> 
11372
(
(11.841 1.67584 0)
(-0.499517 -0.73009 0)
(7.34898 -2.638 1.26288e-17)
(-2.17388 -0.10558 3.41663e-20)
(10.5243 -0.264409 0)
(-0.635908 -0.80603 0)
(11.8008 1.17899 -2.66691e-18)
(12.7426 1.22098 -7.98231e-18)
(11.8046 1.63209 0)
(5.95753 5.72385 0)
(11.5428 0.765095 -2.08762e-19)
(6.48332 2.43637 1.05925e-18)
(12.4673 -2.4913 -1.58483e-18)
(10.9285 1.39537 1.46057e-19)
(9.74146 -0.960963 0)
(-2.05338 0.146161 5.9726e-18)
(12.2746 0.551042 6.06662e-18)
(11.9129 1.90846 -2.88676e-18)
(9.77193 1.96541 -6.72853e-19)
(9.67591 1.02815 -6.78332e-18)
(2.55559 0.678614 -6.40629e-18)
(10.6258 0.287684 4.57896e-18)
(8.27126 -8.82463 6.00719e-19)
(1.11378 0.451698 1.83638e-17)
(11.6735 0.477922 8.92767e-19)
(6.04788 0.747064 -1.34985e-18)
(-1.04655 -0.397193 1.24953e-20)
(10.4003 2.17775 -2.33129e-19)
(9.86163 0.888735 8.96848e-18)
(9.79122 1.01085 0)
(9.66852 1.78842 -1.83651e-18)
(9.95374 0.858191 -5.09154e-20)
(10.9258 -0.516388 -4.46625e-18)
(10.8065 1.70374 -5.66575e-19)
(3.19395 1.88575 -2.6181e-20)
(10.3122 1.13828 -2.28999e-19)
(11.0465 0.460339 2.83729e-18)
(11.3459 1.55948 1.62061e-18)
(12.1949 0.0452712 -5.84743e-18)
(11.7058 2.88391 -1.24447e-17)
(13.011 1.56893 1.31336e-17)
(9.88893 0.878923 2.55292e-18)
(10.8294 1.11368 0)
(6.02284 -0.0562615 -6.00766e-18)
(10.2106 0.206026 7.83901e-18)
(12.5303 1.47612 -5.18726e-18)
(11.3785 -0.160923 -1.20512e-18)
(1.26378 0.832171 -5.24801e-18)
(-0.461184 -1.58734 -6.21078e-18)
(10.9438 -0.0145911 -3.91795e-18)
(8.58545 0.955669 3.66622e-18)
(11.6428 0.760729 -8.17886e-18)
(6.00321 -5.10086 5.80729e-18)
(10.5197 -0.418617 9.49286e-18)
(9.8527 1.71613 0)
(11.4921 1.63914 -3.5538e-18)
(5.8719 1.80616 1.51212e-17)
(-0.44877 -1.23297 -1.23704e-17)
(10.9391 -0.0788243 -6.98931e-19)
(7.01637 0.242456 0)
(12.1929 -4.04861 -2.60948e-18)
(9.72928 -0.663436 0)
(10.4483 1.2009 3.54692e-19)
(-0.0891101 1.25088 -1.88445e-17)
(5.26027 1.55054 -5.80949e-19)
(10.5771 1.21639 -1.20656e-18)
(12.3809 1.98227 3.51604e-18)
(-1.992 -0.222408 -3.65844e-18)
(7.05649 -4.90787 8.63976e-18)
(2.20112 0.757011 0)
(10.5993 0.147407 -2.53841e-18)
(11.2564 0.957066 -1.98321e-18)
(11.014 0.639804 -2.71185e-20)
(11.5789 0.224609 3.91243e-18)
(12.5569 2.71272 3.55214e-18)
(9.92764 0.912227 4.80574e-20)
(-2.45203 -0.0853934 -4.19674e-18)
(10.6205 1.97905 4.02675e-19)
(9.94144 0.817591 -6.95559e-18)
(13.7679 2.549 0)
(-2.57841 0.0489024 -5.38814e-18)
(3.70509 -5.67625 -8.28077e-19)
(0.725119 -2.3517 -4.52071e-17)
(8.90832 -3.57142 -1.72554e-18)
(16.0574 -1.27609 -6.16864e-18)
(11.2795 8.88804 6.65815e-18)
(10.1566 1.02078 0)
(11.6142 1.53993 -3.12005e-21)
(8.92712 0.793523 -3.44557e-18)
(13.1999 4.65605 -8.01286e-18)
(10.935 0.481041 -2.37269e-18)
(10.1685 -0.734646 -1.00486e-19)
(-1.08854 -0.818396 0)
(9.54957 -2.82681 1.33663e-18)
(10.4563 0.0413363 3.58224e-18)
(2.39536 0.626138 1.14828e-18)
(12.4335 1.02363 1.57586e-17)
(0.406273 0.850131 -2.26965e-19)
(-0.164533 0.644122 9.41444e-18)
(10.4647 1.29259 2.35902e-19)
(10.0171 0.460246 3.71385e-18)
(8.34861 -0.175782 9.43278e-18)
(9.91203 0.613746 5.59361e-18)
(10.9113 0.168406 1.26376e-18)
(9.70574 0.381341 -6.16851e-18)
(1.90308 2.33707 1.38211e-17)
(-0.315476 -1.14365 -1.54477e-17)
(9.86194 0.615081 -1.49162e-17)
(10.3696 1.47222 -2.85692e-19)
(9.10707 0.755708 0)
(10.3532 1.98609 -5.86492e-19)
(8.78664 0.300941 1.93247e-18)
(8.96557 -6.91446 -6.14165e-19)
(9.82422 1.24534 -6.89855e-18)
(-1.49012 0.378476 9.19775e-18)
(10.0567 0.462423 -4.71375e-19)
(13.0967 0.377221 2.63829e-18)
(10.0112 1.12453 0)
(10.9608 1.39119 0)
(-0.249943 -0.209919 -1.06041e-17)
(-0.992857 0.336578 3.00469e-18)
(13.0304 1.04271 2.21065e-17)
(2.9058 -0.737507 7.1417e-18)
(10.1837 1.55574 1.19379e-18)
(7.38649 -0.349924 3.06689e-18)
(9.76334 0.94247 3.11272e-18)
(11.7166 0.79939 1.75688e-18)
(12.7025 0.459622 5.60128e-18)
(10.9416 3.02867 -4.54141e-19)
(13.204 2.1367 -6.80366e-19)
(12.3092 1.45928 -1.44207e-17)
(11.4735 3.48845 8.82573e-19)
(-0.878743 -0.734153 -2.08328e-17)
(12.6868 -1.25608 1.03225e-18)
(12.4947 0.70043 0)
(11.1292 0.925531 9.84375e-18)
(11.7759 1.75012 -5.25119e-18)
(3.3468 -0.920696 -7.24203e-19)
(1.76269 4.20287 -1.27128e-17)
(9.88029 0.636365 0)
(8.35029 -1.18948 6.72366e-20)
(9.9342 0.916125 0)
(3.67428 0.600987 6.1538e-18)
(8.62563 -4.96219 -1.62454e-18)
(10.4754 -0.243555 -2.03936e-19)
(12.7526 1.01187 -8.58582e-20)
(-1.89444 -0.381259 4.3801e-18)
(9.56999 2.0561 0)
(9.69441 1.64679 0)
(12.2547 0.406456 5.4578e-18)
(10.6072 0.0724311 -1.89543e-18)
(10.8547 7.138 1.85482e-18)
(11.9293 -0.0276022 4.12347e-18)
(-0.974401 -0.595711 0)
(10.0406 1.51503 -3.44893e-18)
(10.4711 0.693359 -2.45517e-19)
(11.6799 1.35767 -2.64431e-18)
(11.3881 1.28448 -3.56772e-18)
(-0.0289274 0.812476 0)
(9.65502 0.309371 -1.70695e-17)
(11.1823 0.488853 1.74879e-19)
(10.947 0.180698 0)
(13.1083 1.67654 7.71872e-18)
(9.94943 0.85806 2.11916e-17)
(-1.22101 2.36022 3.75541e-18)
(11.8349 -1.12797 0)
(12.6692 1.90719 6.43987e-18)
(-2.28118 0.200061 0)
(10.9484 0.304091 2.46186e-18)
(10.6251 0.877178 -4.22535e-20)
(-0.749387 -0.369264 4.24172e-18)
(10.4094 0.320752 0)
(8.78574 0.351667 -7.01424e-18)
(12.5142 3.26622 -6.90906e-18)
(10.3514 1.99272 1.57552e-17)
(13.4452 4.99706 1.86092e-19)
(9.68222 2.90073 0)
(-1.05164 0.103557 3.44405e-20)
(14.0384 4.18584 4.44624e-18)
(9.93603 0.424336 -6.88719e-18)
(9.20568 -3.52116 -2.44469e-19)
(9.57912 1.1583 1.44376e-17)
(12.6879 6.65803 -1.8709e-17)
(8.64045 1.28032 -2.95319e-18)
(1.38481 0.239898 0)
(10.7318 0.429719 1.40376e-18)
(6.88116 4.03688 0)
(13.2321 2.1886 3.01032e-18)
(8.32282 0.365333 0)
(-0.581634 -1.50656 -5.2536e-20)
(10.5646 0.103724 -3.86411e-19)
(9.78896 1.32924 0)
(8.19145 0.742031 2.71757e-17)
(11.998 0.960953 -5.15919e-18)
(12.5401 0.352739 5.88362e-19)
(12.0373 0.496638 1.76184e-18)
(-1.85087 -0.185712 1.06236e-17)
(9.79714 0.957209 3.99005e-19)
(12.9572 4.11781 1.92564e-18)
(11.894 2.50502 -1.90871e-18)
(9.78253 1.08453 -9.73157e-18)
(9.16315 0.766279 -1.74827e-18)
(9.46708 0.827935 0)
(0.160915 -0.144726 6.48584e-18)
(10.3522 1.67196 0)
(11.427 1.14668 5.16811e-18)
(10.415 0.390797 -1.72875e-18)
(11.6148 1.01544 -8.58144e-19)
(11.6319 1.59982 1.67422e-19)
(8.0425 1.9109 1.23089e-18)
(14.0168 -0.340694 -1.93588e-19)
(11.438 1.16846 -1.73902e-18)
(11.3145 1.53552 0)
(9.7061 0.905215 -5.5909e-18)
(9.83058 0.634116 0)
(10.8381 -0.214275 1.41178e-17)
(9.85868 0.861125 -1.87954e-17)
(9.62613 1.08483 3.04975e-20)
(11.3113 0.779904 6.24483e-18)
(-2.00138 0.056391 1.13032e-17)
(10.1618 1.38423 -3.24848e-18)
(9.67497 1.12076 -7.55631e-18)
(1.66122 -2.41347 1.94111e-17)
(-0.291843 1.76561 -3.66699e-17)
(9.85367 0.642479 5.67299e-18)
(9.98382 5.66616 1.14044e-18)
(-1.09427 -0.929871 1.81584e-19)
(10.7149 0.583441 -1.12987e-18)
(9.85924 0.529139 0)
(10.3129 -0.61005 -4.10003e-18)
(9.78013 2.54473 -2.94432e-18)
(9.89304 1.72662 2.37537e-18)
(12.4958 2.09692 -3.83998e-18)
(10.6706 1.33726 -7.28631e-19)
(5.68787 0.730067 5.51616e-19)
(-1.28292 0.942654 5.76797e-18)
(12.9678 2.43008 0)
(3.90575 0.6754 -3.451e-20)
(10.7954 -0.311401 -4.07861e-18)
(11.5859 -2.22087 2.48283e-18)
(9.95555 0.861307 -1.50392e-17)
(13.8265 3.0516 3.30794e-18)
(9.63817 -2.53947 5.19558e-18)
(10.1606 1.32477 2.94353e-18)
(8.923 -3.26105 1.51967e-18)
(10.4684 2.03156 0)
(9.63384 1.62431 8.90925e-18)
(9.67017 1.97031 6.45188e-19)
(9.99339 1.99149 -6.41486e-18)
(12.9032 6.32227 -1.00694e-17)
(10.6337 -0.866147 -4.3987e-19)
(10.4145 0.335562 -6.31151e-19)
(17.0581 7.00284 1.6245e-18)
(11.3299 1.5426 -7.30557e-19)
(13.6309 2.24367 -7.73277e-18)
(9.42838 0.25056 4.12696e-18)
(5.62001 0.140693 -4.23935e-18)
(10.0314 1.1943 -1.31652e-18)
(8.98595 2.35482 4.48472e-20)
(10.1326 -0.0122722 1.47718e-18)
(12.9046 1.76294 -1.15895e-18)
(9.91085 0.910435 -2.25169e-18)
(4.36333 1.53918 7.10266e-18)
(9.767 0.656092 3.29854e-18)
(6.58735 -2.91686 -5.97018e-18)
(12.0344 2.00744 4.35938e-18)
(8.74618 1.76774 0)
(2.66154 0.043592 -6.66251e-18)
(0.858031 4.14858 2.53514e-17)
(12.0101 -0.130267 0)
(0.375255 0.908088 -2.05757e-17)
(12.0777 1.72793 6.39388e-18)
(9.69903 4.1917 -2.60057e-19)
(12.3724 0.776668 0)
(12.128 0.169872 0)
(2.23289 0.748092 0)
(10.0682 0.00618988 -1.28081e-18)
(10.2836 1.15641 1.1645e-19)
(10.2095 -0.530693 4.3669e-18)
(7.66496 0.775555 -1.13253e-18)
(10.9611 -0.299192 3.08835e-18)
(10.0124 -0.842571 0)
(9.56754 0.196639 0)
(10.1679 -0.217415 -1.81133e-18)
(11.797 1.12814 -2.77867e-19)
(10.6249 1.30594 7.44538e-20)
(0.964867 0.203835 7.99793e-18)
(-1.34938 1.91663 -6.5812e-17)
(10.5337 1.17943 1.50408e-18)
(4.67686 1.59506 3.65281e-18)
(0.74956 -0.158265 0)
(9.85607 1.05731 4.86559e-18)
(-1.48185 -0.378723 1.228e-17)
(10.3693 0.427731 -1.87169e-18)
(1.90463 0.776179 -3.72728e-18)
(10.1228 1.71411 -7.70953e-18)
(1.92692 0.0742474 0)
(9.93515 1.10851 4.86364e-18)
(11.0184 -2.20898 -2.77139e-19)
(-1.28536 0.452601 -5.18515e-18)
(9.94509 0.894942 8.0256e-18)
(13.0513 -0.217486 0)
(2.84059 1.96297 -1.73065e-17)
(4.83459 0.938013 6.80557e-20)
(10.9002 0.112038 -1.13291e-18)
(12.0083 1.35611 -4.16467e-18)
(3.79205 -4.96322 1.45577e-17)
(10.8902 -0.0687717 0)
(9.9451 0.851063 3.83997e-18)
(11.5065 0.557555 0)
(7.51011 -6.33347 -2.78225e-19)
(9.94334 0.810404 2.15543e-17)
(-0.883867 -0.244157 -9.42522e-18)
(15.3723 -0.515683 2.45954e-18)
(10.1653 0.475181 -3.51959e-18)
(10.0574 2.2689 -5.49103e-19)
(1.9789 0.361641 -1.6496e-17)
(12.169 -1.10517 3.38729e-18)
(12.1989 1.80251 -8.2256e-20)
(13.5209 1.92105 -6.07212e-18)
(10.1767 3.33692 -1.41851e-19)
(-1.78982 -0.110089 0)
(10.989 -0.473155 -2.75695e-18)
(9.68923 0.798699 0)
(9.76153 1.11149 1.51575e-18)
(5.64263 0.712697 1.8078e-20)
(12.8828 0.468908 0)
(8.57389 -1.82983 0)
(10.2784 5.52465 2.3777e-18)
(11.7844 0.996605 -5.64454e-19)
(1.37115 0.738791 -9.23512e-18)
(9.79787 0.985505 6.39897e-18)
(6.63304 5.28978 0)
(13.0309 1.24289 -5.40363e-18)
(12.0533 -0.699565 -6.68122e-20)
(12.4832 2.6342 -5.34537e-18)
(10.6373 0.256353 7.8801e-19)
(-0.232942 1.45762 0)
(10.3196 2.38965 3.68109e-18)
(11.505 2.57988 2.03374e-19)
(-1.75318 0.47391 0)
(8.32992 -0.780441 0)
(10.3312 -0.36806 0)
(11.2421 1.20238 5.0129e-18)
(10.4503 0.660822 1.0363e-20)
(10.7704 -0.539901 1.4463e-18)
(10.8352 1.12299 3.68004e-18)
(11.5336 1.25639 0)
(7.27556 0.752158 3.74142e-18)
(9.95813 0.872992 7.46094e-19)
(3.31743 7.03301 -2.23571e-18)
(12.3144 1.85586 3.35675e-19)
(8.58794 0.87009 1.39383e-18)
(7.99821 -1.30946 5.95839e-18)
(9.7061 0.0670463 8.08741e-18)
(13.1795 1.44947 5.13723e-18)
(6.022 1.09478 2.20256e-17)
(8.77968 0.627162 -3.53795e-18)
(11.308 1.67572 -1.371e-18)
(9.81029 1.15303 0)
(10.6022 1.07206 0)
(11.9128 0.874965 2.46461e-18)
(9.56392 -0.376662 1.63998e-19)
(9.64775 1.24725 -1.48354e-18)
(10.1367 0.521488 -3.32438e-18)
(-1.0284 1.78063 2.83617e-17)
(12.329 2.23499 -5.79609e-18)
(5.02126 2.23567 0)
(8.10054 2.21414 1.30815e-17)
(9.65885 0.694384 4.08702e-18)
(9.74036 0.747007 0)
(11.6652 -0.0903398 -2.71923e-19)
(-1.48877 0.277037 1.77261e-17)
(-2.11653 -0.276129 4.27722e-18)
(10.0789 3.99646 3.00449e-19)
(7.83028 2.14459 -2.64849e-18)
(6.24379 0.20768 -5.51182e-18)
(9.84587 0.6957 -1.05167e-17)
(13.2684 1.49819 -3.60628e-20)
(5.35962 0.656305 0)
(10.6424 1.55063 -1.04276e-19)
(9.75816 0.970523 -3.57764e-20)
(11.2316 -0.154227 0)
(12.0445 1.20756 0)
(10.0232 -0.202969 0)
(6.2113 7.00887 -1.39711e-18)
(-1.00701 -0.818861 5.7714e-18)
(10.3803 2.82443 1.181e-19)
(12.7232 0.630491 2.01086e-19)
(11.324 1.54826 5.80517e-18)
(4.33053 0.114372 2.7819e-18)
(0.914203 0.409709 6.15416e-18)
(10.085 1.47232 -2.97719e-18)
(11.6005 1.53691 6.23677e-18)
(10.0832 1.17228 1.47623e-18)
(11.6392 1.24082 2.94276e-19)
(10.484 0.304675 0)
(16.132 3.80675 0)
(9.95649 -5.86202 0)
(12.8796 0.387628 3.45785e-18)
(9.10651 0.504888 7.1608e-19)
(10.8683 0.790251 -5.47463e-19)
(11.3154 1.53539 -4.4231e-19)
(-1.84805 -0.385576 -5.46655e-18)
(11.2887 -0.0362741 -1.76967e-19)
(10.7909 1.13117 -1.45901e-18)
(3.25118 -0.0847949 -8.00242e-18)
(1.10631 -0.135937 3.36817e-18)
(11.5994 0.882821 7.98944e-19)
(11.2805 0.207903 4.46586e-18)
(9.94183 0.463482 0)
(4.67547 -0.857974 -1.35494e-20)
(11.0455 0.242521 4.91132e-19)
(-0.670529 -1.78465 -1.46523e-17)
(-1.10486 1.67312 1.27977e-17)
(-0.769245 -1.67731 7.00962e-18)
(10.8535 1.06055 1.7578e-17)
(9.52671 -1.85196 0)
(10.1128 0.835053 0)
(11.2093 0.580774 -2.0925e-18)
(5.652 -1.22009 1.07292e-17)
(10.7513 0.612562 1.33163e-18)
(9.94752 0.693576 3.73376e-18)
(8.36888 10.3013 1.64932e-18)
(9.7868 1.81495 -4.2303e-18)
(9.93154 0.915666 -1.33533e-17)
(-0.829893 1.61044 5.88011e-18)
(11.3934 1.62555 -2.18576e-18)
(8.88845 1.56444 -2.86733e-18)
(9.94803 0.820403 1.41108e-17)
(10.988 1.36204 0)
(10.5342 0.437753 -1.55857e-18)
(10.3965 0.58565 2.82145e-19)
(-1.05086 -1.40146 1.1287e-16)
(0.860257 0.931789 -4.0347e-18)
(10.1369 1.31409 0)
(-0.00848204 0.637119 -4.72206e-18)
(9.69612 1.05062 6.66379e-18)
(2.35242 -0.092814 5.57264e-18)
(11.8066 0.382875 2.64695e-18)
(11.6841 4.80773 -1.99321e-18)
(11.0083 1.58215 7.5353e-18)
(9.92947 0.692048 4.37578e-18)
(11.6072 0.624062 0)
(10.3462 0.419621 -3.05453e-18)
(-2.12825 0.331803 -5.26156e-18)
(-1.07052 -1.32835 -3.18904e-17)
(9.85823 0.832438 3.78241e-18)
(-0.503829 1.38725 5.81177e-18)
(5.43469 0.502405 -8.72244e-18)
(10.3842 0.705367 -1.77527e-20)
(13.2308 -1.86126 2.50567e-19)
(11.6315 0.455451 -7.72573e-18)
(8.63587 1.83882 3.58707e-18)
(12.5752 -0.0149081 0)
(9.33683 0.125234 -3.52098e-18)
(5.56998 -0.96819 -2.92357e-19)
(13.1585 0.219947 8.3896e-18)
(9.79669 0.351686 0)
(10.5947 0.00334763 -3.20784e-19)
(5.84989 0.284469 1.35327e-18)
(6.73821 1.55735 9.78533e-18)
(10.9493 0.397832 1.4103e-17)
(11.276 -2.13204 2.21924e-18)
(4.53316 0.0572075 -2.28627e-19)
(5.55573 6.19908 0)
(11.6049 0.52865 -6.19356e-18)
(13.1865 0.742703 1.39668e-18)
(2.72848 1.14063 4.63373e-18)
(8.61885 -2.99368 0)
(11.4409 1.42571 -3.16581e-18)
(8.03717 1.66819 -1.50545e-19)
(9.75432 0.910897 -2.83437e-18)
(10.3476 1.63804 0)
(4.51807 1.62544 0)
(7.79754 4.2714 4.86115e-18)
(12.3975 -1.68896 2.61724e-18)
(10.5378 0.281521 1.48176e-19)
(10.8232 1.00526 -2.56191e-19)
(6.96264 1.73432 -7.04124e-18)
(9.70219 0.954229 1.83657e-17)
(2.15611 1.92712 0)
(-1.15927 0.552785 4.08003e-17)
(10.1131 0.476568 0)
(10.5307 1.32603 -3.9026e-21)
(-1.06895 -1.70216 -1.62069e-17)
(6.81677 -1.22657 1.144e-18)
(12.6475 0.961516 4.4005e-18)
(10.7418 0.109689 0)
(10.2791 1.40451 0)
(7.80898 0.419427 -1.72604e-18)
(10.136 1.09517 2.99806e-19)
(10.2219 1.75202 4.12753e-18)
(10.368 0.336798 0)
(12.0374 1.30796 -3.58062e-18)
(8.77615 -1.63235 -2.3481e-18)
(8.24649 -0.471937 1.33274e-19)
(10.7344 1.26415 2.349e-20)
(9.75742 1.03411 1.4674e-18)
(9.90708 0.801332 8.02667e-18)
(9.92865 0.9823 -2.02874e-17)
(12.2833 0.445035 -1.19043e-18)
(11.8947 6.75176 9.484e-18)
(3.44806 0.340389 -4.15822e-18)
(9.17725 1.36875 9.86172e-18)
(11.3236 1.27107 0)
(0.771767 -0.0118027 0)
(10.0902 0.49884 -2.28857e-18)
(13.3178 0.0168566 -6.45143e-18)
(10.7168 -0.267879 -1.27468e-18)
(9.87373 1.24083 2.44606e-18)
(12.0505 -0.509575 0)
(12.1757 -0.351121 4.28512e-19)
(9.89849 0.655124 -1.70257e-17)
(9.94085 0.923089 1.50126e-17)
(9.96557 0.384026 0)
(8.73651 0.699689 -7.00974e-18)
(8.6156 4.38752 -5.45443e-20)
(8.16812 2.36572 0)
(11.7042 -0.560909 0)
(12.44 1.50426 5.49614e-18)
(10.1103 0.5556 2.30709e-18)
(2.44084 -0.890665 -2.29893e-19)
(11.3269 1.40891 -2.6885e-18)
(8.83381 2.29014 6.50161e-18)
(10.2827 -0.0207705 -4.06392e-19)
(-0.402959 -1.22064 0)
(10.6328 1.4164 -1.00117e-19)
(9.5935 0.429206 -1.8161e-18)
(11.873 0.908626 0)
(10.5807 2.32116 1.74683e-19)
(10.956 1.16132 7.11904e-18)
(10.5394 2.09855 5.00258e-19)
(12.1361 0.784615 2.91413e-18)
(10.8491 0.34303 1.48459e-17)
(7.52132 1.57021 0)
(10.4032 -1.55674 4.70487e-19)
(10.5395 0.636952 -4.995e-19)
(10.3722 7.11743 -1.6449e-18)
(9.71353 1.58367 -3.0999e-18)
(10.7402 -0.0408398 -3.94705e-18)
(-1.07435 1.97333 -8.29259e-18)
(9.32011 -3.76399 -1.38884e-18)
(9.05382 2.14752 9.29742e-18)
(9.06031 3.79064 0)
(11.7084 1.11837 -5.75128e-18)
(9.29466 -1.33632 -6.39842e-18)
(11.054 -1.51415 1.22956e-19)
(12.6026 6.09008 5.43213e-18)
(-0.365318 -1.23347 -7.36207e-18)
(10.3895 0.377057 2.45668e-19)
(10.8265 -1.52478 0)
(12.8077 0.308413 -5.02162e-18)
(9.87162 0.873727 3.25235e-19)
(10.5473 -0.294967 2.01718e-18)
(10.2423 0.215674 -1.36807e-19)
(5.35137 2.16004 0)
(9.8875 1.12448 2.28951e-18)
(11.2556 -0.0828577 0)
(-1.40273 0.432209 -5.37253e-19)
(9.94952 0.8915 -9.00596e-18)
(10.3784 1.581 1.25373e-18)
(10.6054 0.563915 1.31971e-19)
(12.7645 -0.4664 5.67455e-18)
(4.65024 0.571884 -3.66886e-18)
(11.5394 1.04653 1.71527e-18)
(6.18617 3.83569 -2.09174e-18)
(5.00439 0.411735 4.39757e-18)
(12.4679 0.88555 -1.11233e-18)
(1.80123 -0.802598 5.94386e-18)
(10.5364 1.20141 5.88357e-19)
(10.4219 4.54864 8.66268e-19)
(10.3406 1.58986 1.40318e-19)
(11.3232 11.3326 -2.8388e-18)
(9.90928 0.364275 -4.30232e-18)
(8.53625 3.21943 7.71455e-18)
(11.78 1.62887 4.87346e-18)
(10.228 11.5007 7.38419e-18)
(10.9027 1.03742 7.12078e-19)
(10.1728 2.05076 -5.39056e-19)
(-2.47548 0.0619828 9.10492e-18)
(11.7452 1.17143 3.06227e-18)
(13.2497 1.92842 3.76449e-18)
(0.327228 0.583202 1.51721e-17)
(11.7178 -2.63976 -1.70153e-18)
(10.5857 0.191032 1.73568e-18)
(5.65188 9.09103 1.42125e-19)
(10.8994 1.20807 1.65784e-18)
(-1.09051 -0.619732 -1.17143e-17)
(10.5787 0.223516 9.11711e-19)
(8.20526 -1.24418 1.55518e-18)
(11.5477 1.83688 4.47808e-18)
(2.04003 -0.53237 -4.96046e-18)
(5.02979 0.552155 0)
(-2.18029 0.0100322 -3.54877e-20)
(11.5846 -0.676691 2.80306e-18)
(12.0037 -1.13819 -6.60184e-18)
(11.3756 -0.253397 0)
(10.9007 0.964246 0)
(0.506284 -0.629239 -1.58712e-17)
(12.3608 0.612469 3.65585e-18)
(12.2406 1.22155 0)
(9.97136 1.08411 -4.42007e-18)
(2.79048 0.752618 0)
(8.67752 4.8786 0)
(6.57598 1.67812 -7.64712e-20)
(10.5612 1.19446 4.08287e-19)
(1.38825 -0.643818 4.02858e-18)
(10.1046 0.586628 2.32089e-19)
(8.27902 1.60922 8.3159e-18)
(-0.800481 -1.12043 1.5305e-17)
(10.7246 0.882567 -1.34847e-19)
(9.79896 0.790433 -6.63016e-18)
(9.97909 1.23634 3.15756e-18)
(10.269 -6.77329 1.15801e-18)
(12.3472 -0.243606 7.03239e-18)
(10.9351 -6.95647 2.90058e-18)
(10.6227 -2.1188 -1.05361e-18)
(12.4634 0.921916 3.91979e-18)
(-2.39079 -0.140476 -1.43992e-20)
(12.8016 1.2023 1.03177e-17)
(12.9339 1.08924 -3.94468e-18)
(8.34568 1.03062 8.58745e-18)
(8.33535 1.14456 9.96196e-18)
(9.77252 -0.295658 3.08986e-18)
(11.4156 0.709208 -4.92954e-18)
(12.8709 0.227313 -1.98632e-18)
(12.4242 -1.49645 -2.64421e-18)
(12.1585 0.70066 1.63494e-18)
(10.4805 2.33438 -3.67339e-19)
(13.2918 -2.08574 -2.77108e-18)
(9.87631 0.937127 0)
(12.2257 1.31519 6.36417e-18)
(10.5891 0.385394 -1.22182e-18)
(12.4407 -2.86164 2.50448e-19)
(12.4578 1.41333 -1.43142e-17)
(-0.741706 -1.07356 0)
(9.94315 0.796036 -2.45291e-17)
(10.4071 3.29975 -6.651e-20)
(11.5496 -0.344845 1.53229e-18)
(9.91064 0.253768 0)
(10.4258 -1.9648 -7.29037e-19)
(10.2629 0.384153 -1.89743e-20)
(10.1042 0.585547 5.61753e-19)
(9.69984 1.00347 7.72616e-20)
(10.4248 1.36547 3.92967e-19)
(11.5631 1.62191 3.93761e-18)
(9.24393 0.445378 -8.71741e-18)
(8.34904 0.679225 0)
(10.8583 0.115123 -9.76435e-19)
(10.7658 0.145675 -1.77934e-18)
(4.81439 -1.92006 0)
(11.4202 0.866298 4.71731e-18)
(3.91315 -7.18472 1.27014e-17)
(10.0425 1.10365 3.10444e-19)
(9.78876 -1.10707 -1.37839e-17)
(9.92595 0.89672 -8.90586e-19)
(12.4184 1.78635 -9.81986e-19)
(9.57833 -0.0954745 -2.52339e-18)
(2.55964 -5.15934 -2.12406e-17)
(10.3146 0.208563 0)
(11.0487 1.48551 0)
(9.29272 0.452018 2.3625e-18)
(15.1361 -1.39866 1.1321e-18)
(5.94618 -1.21815 0)
(-0.526092 -1.37484 2.74153e-18)
(4.33902 -1.50069 9.32307e-18)
(5.12492 2.5379 -9.04502e-19)
(11.4553 1.30295 -3.4917e-18)
(0.327132 -0.356987 -2.99225e-20)
(13.0541 -1.36382 3.43561e-19)
(4.76161 -7.48352 0)
(9.78972 0.813932 6.99412e-19)
(9.72832 1.52596 0)
(4.82204 0.0322027 -3.27518e-19)
(2.78861 -0.788944 -3.56302e-18)
(10.6225 0.85421 1.30136e-19)
(10.0244 0.599668 5.2347e-18)
(9.535 -0.253468 0)
(12.375 -0.114307 -4.62096e-18)
(9.68343 2.3754 0)
(10.9836 2.62669 -1.2181e-18)
(-0.527205 -0.838164 -3.33219e-18)
(11.3677 0.826365 -6.51041e-18)
(12.9603 0.960676 -2.41998e-18)
(10.5128 0.607748 2.0241e-19)
(10.5295 1.16283 -3.00963e-19)
(11.458 -0.643817 -7.28898e-18)
(9.91393 -1.33214 2.91293e-19)
(12.4309 -0.476089 2.4323e-19)
(9.95377 0.530848 -8.03298e-18)
(9.92431 0.666632 3.98305e-18)
(9.98612 0.676782 -5.05263e-18)
(11.9264 0.413461 -1.30274e-18)
(9.46853 -2.08771 -4.5874e-18)
(12.0013 -0.0209837 -1.67963e-18)
(8.89453 -2.99805 -8.21436e-19)
(9.90139 0.946056 4.21991e-18)
(12.3852 1.11414 -7.71658e-18)
(10.5381 0.898459 -1.58553e-18)
(-0.896795 0.661924 -5.07983e-17)
(12.2503 -0.643891 7.22791e-19)
(12.585 4.658 -2.1939e-19)
(11.3106 -0.847206 0)
(11.5868 0.703214 0)
(10.0156 0.605175 1.02878e-17)
(9.98373 0.666405 6.56791e-18)
(10.0754 1.44057 6.09655e-18)
(10.5823 2.03006 -1.43366e-18)
(9.79179 0.643503 1.14744e-17)
(-0.906087 0.517766 -3.82453e-17)
(3.36111 0.0875263 -1.76156e-20)
(10.034 0.49118 -1.17891e-17)
(-2.82322 0.0842295 5.20119e-18)
(9.26857 -2.65345 0)
(9.42815 0.14817 0)
(10.729 1.07282 0)
(10.9356 -0.405485 4.50997e-18)
(9.18664 3.61958 0)
(11.338 0.814096 3.1769e-18)
(12.9783 0.730413 1.48694e-18)
(11.2593 3.38964 -1.38435e-18)
(7.57442 0.304083 6.75793e-18)
(11.3027 4.22328 2.18447e-18)
(13.0278 1.87892 3.32095e-18)
(10.0012 0.65894 -9.98667e-19)
(10.2348 1.14623 8.39937e-20)
(10.6381 -0.532565 2.20969e-18)
(11.1852 1.06343 9.36615e-19)
(8.28734 -0.606319 -4.46446e-18)
(11.4517 -8.10025 -1.4718e-19)
(10.0412 1.1588 0)
(11.8459 -0.860017 6.37538e-18)
(11.5633 1.41483 2.30112e-18)
(10.9404 0.128169 8.9958e-20)
(12.3798 4.10122 -7.38822e-18)
(7.16933 3.91688 6.55781e-18)
(10.5578 2.01918 7.18552e-19)
(11.1625 1.72798 2.00491e-18)
(10.5264 0.764731 -6.32371e-19)
(10.0754 3.8012 0)
(14.7474 -1.85156 4.37733e-18)
(11.7823 2.5123 -3.03653e-18)
(12.203 2.37456 -5.19706e-18)
(12.6982 1.20582 2.68758e-19)
(8.04648 0.110322 -9.8224e-18)
(8.36529 1.27998 -4.49205e-18)
(-1.15352 1.43371 1.71287e-17)
(1.75942 0.664786 3.58701e-18)
(-2.21181 -0.184188 -6.49291e-18)
(7.34517 0.465828 8.85472e-19)
(10.768 8.87395 1.22619e-18)
(11.6491 -4.03236 5.81641e-18)
(7.66871 0.992645 -3.3725e-18)
(12.7434 2.4406 2.13266e-18)
(9.8365 0.664132 9.48537e-18)
(11.436 1.51329 6.79517e-18)
(10.0021 1.1951 3.33373e-18)
(0.18579 0.0500596 1.84101e-18)
(4.93123 0.740283 7.26757e-19)
(-0.321606 -0.836418 -6.98993e-18)
(3.22554 0.520514 3.51812e-18)
(13.0355 2.50951 0)
(9.66629 1.56124 0)
(11.2289 0.60594 3.87098e-18)
(5.94754 1.30957 -1.45345e-18)
(9.72076 0.978405 -1.20553e-17)
(10.6478 0.368596 3.48946e-18)
(12.8587 3.55451 -1.73869e-19)
(6.70506 -0.858334 -1.63556e-20)
(-1.36096 0.653745 0)
(9.95709 1.11066 -6.09758e-18)
(12.9562 0.659915 3.70607e-18)
(10.7411 0.926722 -7.96263e-19)
(9.84469 -2.60853 3.36468e-18)
(9.93545 0.837294 8.23068e-18)
(4.50526 -5.79211 5.17463e-18)
(12.1453 2.81566 7.93819e-18)
(9.25035 3.91261 -1.65053e-18)
(9.93829 0.834869 2.27276e-18)
(-1.16416 -0.010726 -3.05071e-18)
(16.5869 -7.69315 0)
(9.05887 0.151169 3.9432e-18)
(13.2676 -0.0457074 4.20225e-18)
(10.753 -1.08952 6.00382e-19)
(13.7572 2.02572 2.79969e-18)
(9.94486 0.844017 -6.21227e-20)
(12.5579 1.74888 -1.83687e-18)
(2.85188 -5.67259 8.50576e-19)
(2.7939 1.09022 -4.19019e-20)
(8.43775 -0.574073 1.37067e-17)
(11.1891 0.795841 7.55112e-18)
(10.0981 0.508257 -9.75639e-20)
(10.6761 -1.24476 0)
(13.6445 -0.95613 -4.18355e-18)
(-0.115278 -0.825595 0)
(11.8991 2.39868 0)
(3.03659 -1.67935 4.16256e-18)
(11.1784 0.0192047 3.1102e-19)
(11.3402 1.92055 4.13014e-18)
(9.38182 1.13053 -1.3047e-17)
(10.851 1.94843 -7.47099e-19)
(11.14 -0.651326 -5.67343e-19)
(-0.895481 -1.67937 -2.13103e-17)
(14.1244 2.00928 -7.95084e-18)
(10.1286 5.2649 7.16121e-19)
(8.91179 3.97025 -4.69445e-18)
(9.99937 1.43116 -5.91643e-18)
(13.2481 1.52852 5.72481e-18)
(-0.127766 1.09595 1.73767e-18)
(9.90273 1.07222 -2.70055e-18)
(-0.575076 -1.13456 -1.8774e-18)
(10.6815 -0.438734 -9.14104e-19)
(10.1065 -3.59024 7.32867e-20)
(9.91887 0.729814 -1.15531e-18)
(11.1066 0.372049 4.67037e-18)
(1.79523 1.15339 1.06513e-17)
(6.62276 -0.232851 -5.22616e-18)
(10.8365 0.196257 0)
(6.05924 -0.375357 1.06754e-17)
(11.9871 -3.77554 -3.15121e-18)
(-0.228986 0.394384 -1.54606e-19)
(7.91812 7.20817 5.2611e-19)
(-0.482708 1.19396 -1.71391e-17)
(10.5422 1.43277 -2.4819e-19)
(7.04697 -0.381222 -8.21522e-18)
(-0.405978 -0.885021 -1.81545e-17)
(3.54924 1.59949 0)
(11.5314 5.15292 2.58468e-18)
(10.851 1.31234 1.64768e-18)
(0.135359 0.591204 -1.15823e-17)
(9.30278 -0.486951 1.48844e-17)
(9.62942 -0.409629 2.65821e-18)
(8.21306 0.104337 1.97822e-17)
(10.4352 0.337292 5.60001e-18)
(-1.11575 1.41025 9.05958e-18)
(15.752 -1.84114 4.2425e-18)
(12.6524 -2.62883 2.01858e-19)
(11.3746 1.50401 -1.83277e-19)
(9.64142 2.3032 2.04341e-18)
(-0.747957 -1.14663 -1.0058e-17)
(-1.10706 0.0247832 0)
(-0.890957 -0.337036 1.58098e-17)
(5.00102 0.532122 -2.04688e-17)
(10.7588 2.02493 -4.32495e-20)
(8.86555 1.45217 -1.2433e-17)
(12.39 3.91647 0)
(7.89728 -0.262532 0)
(12.4896 0.626062 -7.75891e-20)
(10.2696 -0.437935 -2.21347e-18)
(14.2907 9.50936 1.56095e-17)
(12.3444 2.55576 3.50217e-19)
(12.3994 0.674644 1.18317e-17)
(8.47933 5.27507 2.08622e-19)
(9.40016 -0.539687 -9.49604e-18)
(-0.144728 -1.04106 9.35789e-18)
(10.7175 -0.0815051 0)
(5.06265 -3.99181 4.9279e-18)
(9.71383 0.156536 -1.10921e-17)
(10.274 0.489961 9.43932e-19)
(-0.627211 0.743624 6.96132e-18)
(10.451 4.10448 6.77103e-19)
(10.3715 1.01881 8.2276e-19)
(12.3064 -3.11812 -2.75756e-18)
(13.3584 4.00359 4.32461e-18)
(11.4475 1.22631 -2.39133e-18)
(9.93629 0.785715 3.90862e-18)
(6.11296 1.94418 3.05917e-17)
(10.7072 1.26511 -1.89934e-19)
(9.97014 0.510171 -8.00212e-18)
(10.1377 0.454161 1.32476e-18)
(11.1678 -0.576844 2.10194e-18)
(1.47956 -0.709906 3.4177e-18)
(9.8465 0.845466 -5.12285e-18)
(9.92289 0.765304 1.4731e-17)
(12.8236 2.40355 0)
(8.226 1.16071 -2.52826e-18)
(8.93066 -1.1892 9.29211e-19)
(-2.1641 0.0998969 -5.81095e-18)
(12.2727 0.985886 -4.09953e-18)
(11.5158 0.249771 -1.78815e-18)
(12.2503 -2.59691 2.43129e-18)
(12.7602 0.150965 -1.44704e-18)
(10.6822 0.279805 1.79072e-18)
(10.3813 1.83748 8.94664e-20)
(11.3145 1.32916 0)
(6.51153 -2.07385 -1.00853e-17)
(10.4078 -0.00700404 0)
(11.4368 1.6088 1.01014e-18)
(10.4063 0.352613 0)
(10.842 0.0431864 -2.43889e-19)
(-0.734259 -0.375564 -1.1445e-17)
(9.04537 1.54472 -1.9628e-19)
(10.3686 0.728015 7.35077e-20)
(11.6408 -1.95328 1.31137e-18)
(10.8322 -0.64999 0)
(10.2684 0.16804 5.38145e-18)
(9.98598 -0.648562 2.4768e-19)
(10.044 0.60106 -2.18078e-18)
(7.61238 3.35484 -3.77176e-18)
(9.94959 0.840684 6.99211e-18)
(10.998 -0.366056 -2.96503e-18)
(10.2782 0.453074 -3.85745e-18)
(9.9588 0.868817 2.57191e-17)
(13.1257 2.17018 -2.04424e-18)
(13.0065 0.879731 -3.0305e-18)
(10.8558 1.58327 -2.7418e-19)
(11.0972 -0.619535 -3.89124e-18)
(10.0545 0.573862 0)
(-0.00157728 -0.609892 5.62109e-18)
(10.5845 0.582998 -2.28887e-19)
(10.1503 0.541955 -6.00501e-19)
(9.14575 1.14685 5.40075e-18)
(8.36486 1.81484 4.74015e-18)
(11.9845 3.56955 -3.14088e-18)
(10.0899 2.53606 7.81126e-19)
(10.5638 -0.763154 -2.62677e-18)
(10.9974 1.51858 -5.27821e-19)
(12.3101 1.12118 1.29295e-17)
(11.1069 -6.01711 -3.34965e-18)
(9.21687 -1.02259 0)
(11.3979 1.22479 3.2146e-20)
(10.4257 0.316518 -3.70681e-18)
(-2.42743 0.0847716 6.49551e-20)
(10.1295 1.92061 -5.28379e-20)
(-2.18908 0.0239524 -2.64406e-18)
(11.6449 1.13622 -3.20541e-18)
(-0.682208 -1.44564 3.19308e-21)
(8.59352 -1.64006 1.84218e-18)
(11.2375 1.52236 9.08377e-20)
(10.008 0.648411 -2.32791e-18)
(10.2477 -1.97431 0)
(11.6055 2.34499 4.01903e-19)
(7.99655 -3.45549 -7.67688e-19)
(9.95758 0.865154 -4.14479e-17)
(7.15424 -4.27342 7.88901e-18)
(0.642145 0.404964 -2.73678e-17)
(10.2257 1.34667 -8.29069e-19)
(9.95486 0.879269 3.32282e-20)
(12.512 -3.97125 -1.80994e-18)
(9.4178 1.99171 -4.47676e-18)
(10.0533 2.13051 -1.71907e-18)
(11.3374 0.0548471 -5.07421e-20)
(9.86808 1.49262 -5.01245e-18)
(8.95909 1.03778 1.23043e-17)
(10.8948 -0.0102826 4.54314e-18)
(-2.09922 -0.0268001 4.24268e-20)
(10.0144 1.6829 -3.29105e-19)
(11.0768 0.4101 1.74292e-19)
(9.91846 1.46329 7.54084e-18)
(11.5497 0.380096 0)
(10.1677 1.72979 1.0319e-17)
(10.3581 2.68519 -2.5628e-19)
(12.9709 0.168752 -4.3773e-18)
(10.5964 -2.78282 4.24884e-19)
(11.3342 1.54023 1.30282e-18)
(12.7601 0.0509312 -1.33545e-17)
(10.8621 -0.657263 1.5898e-18)
(-2.5746 0.0555742 -3.71868e-18)
(10.1012 1.29147 2.48755e-18)
(10.36 -0.0204795 8.16758e-19)
(14.8941 -2.30187 -4.64701e-18)
(11.4583 0.263062 1.06127e-18)
(10.4943 0.771661 0)
(9.9504 0.734456 1.07831e-17)
(8.9759 -2.18065 0)
(9.93833 0.704913 -2.15941e-17)
(11.4093 1.52707 -2.54215e-19)
(11.7296 0.25485 2.28856e-19)
(4.53366 4.18376 2.21001e-18)
(12.2156 -1.64984 4.18619e-18)
(11.3774 1.48798 4.43384e-18)
(4.04543 1.30583 -7.32282e-18)
(10.5654 1.14057 -6.12906e-19)
(12.846 -0.748616 1.04862e-17)
(10.0049 0.540964 -2.82015e-18)
(10.6503 0.398268 1.13483e-19)
(10.6118 -1.44864 9.66603e-19)
(10.6193 1.59131 0)
(8.25147 -3.78008 1.11465e-18)
(-1.34018 -0.590514 -4.70767e-18)
(10.6518 0.428948 9.22376e-20)
(8.24754 2.05529 1.65852e-17)
(5.21969 0.661012 7.38031e-18)
(12.2712 0.43665 0)
(9.47871 0.991993 -1.8198e-18)
(-1.98523 -0.00455843 0)
(9.91348 0.688324 -2.22304e-18)
(9.74373 0.0990675 6.5635e-18)
(8.35617 -2.71428 6.14162e-20)
(12.4027 0.655016 0)
(9.78089 0.729204 8.54041e-18)
(9.72866 1.10883 -5.06247e-18)