/*--------------------------------*- C++ -*----------------------------------*\
  =========                 |
  \\      /  F ield         | OpenFOAM: The Open Source CFD Toolbox
   \\    /   O peration     | Website:  https://openfoam.org
    \\  /    A nd           | Version:  7
     \\/     M anipulation  |
\*---------------------------------------------------------------------------*/
FoamFile
{
    version     2.0;
    format      ascii;
    class       volScalarField;
    location    "50";
    object      nut;
}
// * * * * * * * * * * * * * * * * * * * * * * * * * * * * * * * * * * * * * //

dimensions      [0 2 -1 0 0 0 0];

internalField   nonuniform List<scalar> 
11372
(
0.129002
0.0254678
0.10912
0.0856692
0.146129
0.0344189
0.130978
0.117042
0.137686
0.0776289
0.13614
0.114508
0.0995252
0.140189
0.146202
0.0770696
0.122383
0.125476
0.135513
0.137421
0.044323
0.143946
0.0210629
0.0145104
0.136248
0.142877
0.0801156
0.135723
0.138671
0.138287
0.135952
0.139816
0.144849
0.138488
0.066131
0.145231
0.142906
0.144547
0.135048
0.121062
0.0846577
0.138895
0.141266
0.112433
0.13978
0.127343
0.133877
0.12666
0.0090567
0.141257
0.0147085
0.134419
0.0640069
0.127655
0.137582
0.13702
0.110781
0.0175695
0.141443
0.121714
0.0832497
0.131454
0.145594
0.0330025
0.142511
0.145551
0.1144
0.0976756
0.0778393
0.0362186
0.141903
0.142113
0.143612
0.137029
0.103805
0.139387
0.09291
0.137015
0.139924
0.041522
0.108091
0.0235884
0.00288725
0.106026
0.0144972
0.0300677
0.141442
0.138675
0.133234
0.0701168
0.144175
0.132765
0.0619053
0.115489
0.13887
0.138952
0.124943
0.135227
0.0688244
0.141
0.140148
0.128743
0.139987
0.139887
0.13759
0.0357158
0.023927
0.139528
0.140514
0.134123
0.136919
0.131733
0.0497095
0.139186
0.123078
0.140328
0.0813131
0.140386
0.139993
0.120455
0.120865
0.106783
0.134986
0.139876
0.122859
0.137957
0.134763
0.111137
0.127763
0.0519921
0.129388
0.117412
0.0133083
0.103939
0.126443
0.142497
0.129311
0.135127
0.0215487
0.1397
0.144308
0.13953
0.0485463
0.0848007
0.146501
0.116261
0.0852884
0.134272
0.136771
0.0505421
0.138866
0.065666
0.127819
0.0548999
0.139741
0.14149
0.134817
0.135056
0.131835
0.136998
0.139497
0.139758
0.0725505
0.139678
0.0228957
0.120134
0.103837
0.0850223
0.141828
0.141966
0.0797357
0.147577
0.0906559
0.101408
0.142799
0.0612692
0.129945
0.110845
0.0459643
0.139729
0.107072
0.136821
0.0516832
0.116236
0.0830895
0.0472953
0.107535
0.0515657
0.129781
0.0226228
0.142791
0.138644
0.1296
0.129857
0.114941
0.132947
0.0991948
0.138206
0.0815376
0.121547
0.138446
0.134416
0.136157
0.131634
0.139469
0.139902
0.140747
0.134693
0.133767
0.127226
0.0373988
0.136039
0.145786
0.137536
0.139157
0.123325
0.138648
0.137129
0.141374
0.077695
0.116873
0.137567
0.0218605
0.0019456
0.139385
0.0967515
0.0016946
0.141138
0.139404
0.133482
0.132258
0.13772
0.109562
0.140818
0.0941881
0.0501586
0.0847005
0.140908
0.125526
0.112853
0.139946
0.048215
0.118039
0.140609
0.109856
0.136675
0.1365
0.137509
0.136305
0.0552812
0.131873
0.142245
0.0135316
0.144812
0.038304
0.135304
0.0924404
0.140397
0.130616
0.137812
0.089025
0.139163
0.140984
0.138313
0.100181
0.12243
0.145028
0.0948976
0.00358035
0.125217
0.00279303
0.135765
0.117494
0.126493
0.134559
0.0390701
0.137722
0.141103
0.133937
0.143984
0.142698
0.132064
0.135991
0.136127
0.0678337
0.140929
0.0881018
0.00367812
0.145722
0.140652
0.0740875
0.139233
0.0845489
0.140812
0.0424105
0.13879
0.0757475
0.140149
0.117521
0.0493882
0.139993
0.0896558
0.0582814
0.142646
0.140432
0.132861
0.0353392
0.141685
0.140017
0.136267
0.0544979
0.139973
0.122983
0.0224436
0.140555
0.134582
0.071334
0.115279
0.120784
0.041113
0.126934
0.0757478
0.143862
0.137458
0.138303
0.0821989
0.104079
0.122
0.0981691
0.131815
0.137797
0.13829
0.0905454
0.100169
0.13675
0.106836
0.141822
0.0478332
0.134069
0.127067
0.0878134
0.132387
0.135012
0.139492
0.14143
0.146264
0.144355
0.137446
0.124532
0.139939
0.0188134
0.117378
0.131536
0.122771
0.136436
0.085534
0.113546
0.132207
0.145329
0.138954
0.143206
0.129075
0.133339
0.146062
0.140537
0.0505267
0.113986
0.0981538
0.126803
0.13734
0.137931
0.138238
0.0586294
0.0886246
0.119459
0.125392
0.115185
0.139062
0.0688901
0.0896084
0.139963
0.13795
0.134336
0.131226
0.136018
0.0581852
0.0599583
0.131139
0.112541
0.139874
0.0896367
0.0221507
0.140008
0.135025
0.140606
0.133013
0.141804
0.0146454
0.068586
0.102891
0.133772
0.141604
0.144405
0.0817295
0.139453
0.144533
0.0682878
0.110335
0.136828
0.138755
0.139901
0.137518
0.139651
0.0140093
0.0456466
0.0161162
0.046762
0.124246
0.14045
0.141665
0.140006
0.143422
0.140186
0.0171643
0.136606
0.140043
0.0250482
0.144414
0.132357
0.139998
0.139224
0.140923
0.141269
0.004354
0.131604
0.140554
0.134551
0.137605
0.0172497
0.135174
0.0975566
0.139091
0.140088
0.135178
0.140754
0.0823782
0.00432815
0.138694
0.0279769
0.106507
0.141401
0.0874047
0.13592
0.130469
0.11176
0.107149
0.135163
0.0728512
0.13837
0.143235
0.140656
0.11975
0.103394
0.116368
0.0960562
0.0641482
0.135686
0.113011
0.14015
0.11197
0.137287
0.127722
0.137872
0.128528
0.0921293
0.111524
0.107212
0.141651
0.141572
0.134472
0.137542
0.0421347
0.0135274
0.140522
0.140937
0.00557858
0.142322
0.120306
0.141325
0.140655
0.0363234
0.144612
0.138667
0.144655
0.126446
0.124301
0.127469
0.143496
0.138107
0.13945
0.140116
0.0542557
0.0623155
0.0701018
0.134239
0.136248
0.0116262
0.140493
0.0284435
0.144137
0.106763
0.133058
0.119902
0.139846
0.140043
0.139807
0.132115
0.113758
0.126746
0.127349
0.128646
0.140677
0.135033
0.137443
0.130219
0.13799
0.0371005
0.140615
0.0347298
0.131386
0.134816
0.14117
0.136221
0.125942
0.143939
0.144643
0.126823
0.141425
0.0695649
0.137223
0.142501
0.0401065
0.103943
0.131582
0.12092
0.131827
0.127889
0.124397
0.0634988
0.0306667
0.1407
0.125619
0.105573
0.138749
0.135488
0.139949
0.103042
0.139848
0.134645
0.125595
0.139672
0.140021
0.143218
0.104825
0.141232
0.13629
0.102128
0.060995
0.123726
0.13389
0.141179
0.11156
0.139928
0.0138387
0.139316
0.123934
0.127142
0.0146496
0.141542
0.136258
0.106958
0.132069
0.0513114
0.0674851
0.107996
0.139908
0.016541
0.144158
0.0033094
0.140559
0.143632
0.134047
0.133979
0.0108057
0.122524
0.127837
0.117698
0.140361
0.0901621
0.0238138
0.122062
0.129227
0.14025
0.00974197
0.108373
0.143525
0.145778
0.132734
0.140623
0.127418
0.048721
0.141915
0.138279
0.140202
0.0516206
0.135035
0.0444802
0.120294
0.123499
0.102414
0.0794009
0.109014
0.130377
0.130536
0.134548
0.140501
0.102233
0.10813
0.100111
0.134609
0.0844043
0.138865
0.130079
0.140712
0.0955021
0.126836
0.0434058
0.140006
0.126707
0.131629
0.138721
0.122635
0.142728
0.140637
0.13756
0.140852
0.135521
0.0844697
0.0618328
0.140555
0.140663
0.0873174
0.139497
0.0125376
0.140438
0.139792
0.140017
0.0187374
0.134818
0.0161963
0.147702
0.142307
0.134812
0.0337559
0.140824
0.0245836
0.0825521
0.0982766
0.134439
0.124899
0.0941432
0.0151988
0.13815
0.13756
0.138878
0.132488
0.141881
0.140398
0.133837
0.127245
0.132883
0.132003
0.0478627
0.0886239
0.106161
0.141366
0.141254
0.142347
0.128882
0.135414
0.140069
0.140078
0.140244
0.13013
0.122213
0.136569
0.112815
0.139238
0.126464
0.14188
0.00205337
0.116727
0.0847081
0.14384
0.138181
0.140372
0.140238
0.140088
0.136643
0.138557
0.0351948
0.0209027
0.140269
0.11269
0.117009
0.134965
0.141384
0.143731
0.122844
0.140906
0.101632
0.120721
0.125533
0.110037
0.0664499
0.140303
0.141059
0.147359
0.14249
0.12731
0.027008
0.140466
0.140049
0.136408
0.140178
0.0960752
0.110478
0.140358
0.138951
0.14164
0.121585
0.0422875
0.123413
0.116296
0.114175
0.127768
0.130335
0.0472591
0.118024
0.100287
0.0387177
0.0327696
0.0899136
0.127104
0.0979738
0.139033
0.138787
0.140349
0.0996521
0.142087
0.0431102
0.0252021
0.0812659
0.136963
0.140242
0.143884
0.137691
0.145603
0.0888408
0.141092
0.00181216
0.140207
0.118608
0.142255
0.117502
0.139628
0.0343172
0.113685
0.120067
0.140046
0.11059
0.0146861
0.13309
0.0315891
0.130082
0.0326707
0.139784
0.013076
0.0139133
0.0593155
0.12827
0.142653
0.140513
0.129066
0.0653625
0.0389603
0.122309
0.0567111
0.135621
0.143422
0.135521
0.137351
0.131751
0.00783952
0.0213042
0.10293
0.118811
0.139927
0.0792255
0.0583473
0.140134
0.0188288
0.146423
0.106124
0.140076
0.14071
0.137264
0.117565
0.140328
0.119468
0.0900496
0.00961331
0.0675616
0.0136353
0.140662
0.120333
0.0193625
0.074127
0.0945806
0.140878
0.0231502
0.13189
0.133518
0.12865
0.14066
0.0646962
0.0139456
0.0947832
0.140862
0.133195
0.0530134
0.108171
0.126734
0.0739144
0.136852
0.132384
0.0977369
0.126035
0.12744
0.134576
0.0106778
0.1111
0.122241
0.102624
0.131912
0.0338888
0.142733
0.0687412
0.136916
0.140902
0.0227626
0.11719
0.14181
0.0950897
0.0699005
0.13479
0.140101
0.113006
0.143473
0.140092
0.140548
0.143646
0.131424
0.138543
0.1401
0.0938744
0.12993
0.127617
0.104513
0.126379
0.137345
0.101634
0.128551
0.143222
0.138201
0.135715
0.107118
0.138322
0.143073
0.14586
0.13771
0.127649
0.14577
0.141385
0.115035
0.13303
0.139734
0.133041
0.14038
0.118276
0.140006
0.142966
0.140744
0.139964
0.0589985
0.101033
0.146359
0.144182
0.140324
0.0467806
0.141314
0.140793
0.134258
0.129117
0.109303
0.13307
0.132522
0.1467
0.127819
0.0601472
0.129219
0.140287
0.1406
0.113859
0.137152
0.0827836
0.132526
0.0393595
0.123533
0.143849
0.140302
0.12291
0.128043
0.104073
0.139932
0.087776
0.0190118
0.146564
0.139808
0.0798063
0.13376
0.13538
0.138853
0.138842
0.133415
0.141497
0.0819746
0.138694
0.141847
0.139473
0.136728
0.138713
0.132253
0.094092
0.11363
0.144064
0.12615
0.132525
0.0945032
0.140493
0.138139
0.040498
0.137712
0.14207
0.140155
0.12062
0.140128
0.141173
0.134266
0.0766753
0.110472
0.140074
0.141856
0.144424
0.101595
0.140281
0.140678
0.127371
0.139736
0.101456
0.0685884
0.140782
0.127868
0.10408
0.121581
0.136155
0.124081
0.13997
0.136913
0.113724
0.127758
0.138244
0.138028
0.135668
0.0828059
0.111062
0.124427
0.122563
0.140497
0.103179
0.112998
0.109492
0.138471
0.136026
0.141655
0.124962
0.14438
0.140529
0.0604069
0.139601
0.139697
0.0730335
0.140974
0.133196
0.144783
0.104574
0.11243
0.134467
0.127547
0.145394
0.139703
0.0883508
0.140135
0.145374
0.140028
0.138187
0.0308864
0.129994
0.1338
0.13433
0.132018
0.128298
0.138976
0.137852
0.125932
0.142526
0.117338
0.145871
0.14093
0.130226
0.143199
0.138155
0.135782
0.139977
0.14498
0.0764265
0.135664
0.11496
0.11313
0.140841
0.135601
0.0869617
0.140132
0.133239
0.133995
0.137403
0.147165
0.0855888
0.140167
0.136258
0.0757485
0.139133
0.090899
0.123649
0.139676
0.0233918
0.0591499
0.139997
0.128359
0.105338
0.128462
0.0475831
0.00183264
0.136637
0.127036
0.112978
0.0627431
0.14848
0.134311
0.144967
0.142084
0.122051
0.13131
0.117624
0.130118
0.137026
0.133814
0.0780649
0.140309
0.137637
0.048503
0.0423749
0.142686
0.041853
0.14004
0.0839356
0.128922
0.0873329
0.0465853
0.140445
0.12802
0.139795
0.0980791
0.111564
0.0653904
0.119015
0.134898
0.13113
0.0702038
0.138922
0.136405
0.0127678
0.0883979
0.00940095
0.0475073
0.131233
0.107838
0.135305
0.122899
0.139785
0.129307
0.136788
0.137724
0.054222
0.136421
0.140336
0.145402
0.137105
0.128955
0.0541917
0.143765
0.144846
0.14005
0.141602
0.131222
0.141306
0.138402
0.103328
0.104636
0.140437
0.0187313
0.138574
0.0668497
0.132671
0.110889
0.122692
0.130847
0.142143
0.0736113
0.0157821
0.142477
0.0103342
0.00366488
0.0769942
0.141196
0.0760633
0.063587
0.139397
0.137557
0.137955
0.0771343
0.132183
0.140185
0.145111
0.139917
0.13995
0.0226655
0.0764691
0.138272
0.140203
0.0837024
0.141306
0.143394
0.086334
0.136113
0.139696
0.109611
0.131553
0.137666
0.140272
0.127409
0.144483
0.11545
0.129187
0.130889
0.142203
0.0999922
0.130228
0.132892
0.140034
0.122045
0.124709
0.0163535
0.142223
0.13343
0.137085
0.14031
0.032396
0.0370098
0.140373
0.0269139
0.135707
0.139883
0.126109
0.146172
0.121713
0.116208
0.118473
0.0885989
0.140624
0.139503
0.0988205
0.134767
0.0609866
0.0465099
0.142884
0.137933
0.145262
0.108125
0.131567
0.102509
0.088372
0.0679527
0.138088
0.101253
0.136951
0.0104668
0.140773
0.0387068
0.0851494
0.142571
0.140933
0.126875
0.146177
0.1371
0.124995
0.138713
0.143451
0.13097
0.0358262
0.0209907
0.106574
0.0530409
0.140559
0.0580046
0.0729131
0.139357
0.138017
0.00910409
0.137289
0.144838
0.141384
0.0991052
0.142292
0.0016818
0.135968
0.14063
0.136893
0.0842827
0.120026
0.139672
0.14215
0.128585
0.124961
0.0501981
0.108627
0.140002
0.124866
0.101759
0.0943423
0.112803
0.10043
0.136581
0.130169
0.139438
0.019548
0.135108
0.137376
0.119664
0.141256
0.140463
0.0141966
0.0745067
0.131184
0.0790704
0.00890139
0.123558
0.1329
0.109481
0.138805
0.139641
0.141142
0.139654
0.0429141
0.0959363
0.138399
0.0678201
0.117923
0.136198
0.0339942
0.140141
0.143877
0.139329
0.143787
0.133285
0.136143
0.100436
0.14008
0.0997635
0.113671
0.136348
0.140571
0.140083
0.133389
0.129208
0.140141
0.139183
0.140849
0.140692
0.138731
0.126525
0.139908
0.117434
0.145014
0.0170907
0.145265
0.141212
0.0161043
0.140148
0.132077
0.136018
0.0389319
0.0524913
0.0479807
0.136223
0.143599
0.113718
0.117162
0.146617
0.0314955
0.0957593
0.142857
0.111197
0.113291
0.0355781
0.138725
0.145834
0.0475841
0.133612
0.12316
0.143817
0.140846
0.108896
0.135635
0.0918036
0.136008
0.00260789
0.137638
0.14192
0.120997
0.139555
0.0209352
0.133461
0.0852451
0.127899
0.139844
0.140801
0.127061
0.135396
0.140191
0.122342
0.132824
0.147357
0.125952
0.105964
0.126525
0.13883
0.0637552
0.134488
0.133848
0.0439457
0.136566
0.140129
0.131086
0.0931601
0.140627
0.120497
0.140446
0.115114
0.132677
0.0897963
0.128645
0.111946
0.140858
0.0504056
0.0747963
0.131513
0.134355
0.00264138
0.124964
0.118395
0.131396
0.135442
0.0414788
0.116556
0.144821
0.0345405
0.023349
0.139955
0.0888918
0.0181086
0.127825
0.140862
0.118908
0.135965
0.0386409
0.0138928
0.00481527
0.140347
0.141381
0.134362
0.140418
0.141243
0.138455
0.0111216
0.129475
0.138285
0.132903
0.0985591
0.11634
0.0132028
0.137814
0.0300452
0.138117
0.130051
0.139116
0.111999
0.0974141
0.139079
0.139293
0.137637
0.139266
0.0165383
0.0877956
0.130237
0.130766
0.0348051
0.135766
0.139922
0.139954
0.139493
0.0327779
0.12326
0.131096
0.132906
0.142228
0.137137
0.143757
0.141386
0.1405
0.145051
0.139398
0.0222455
0.126524
0.125359
0.095172
0.117365
0.110453
0.0248041
0.141174
0.127515
0.121164
0.1394
0.134897
0.138359
0.132538
0.142289
0.13326
0.115757
0.122535
0.130952
0.106066
0.138513
0.0535302
0.025681
0.11347
0.0177553
0.12483
0.107044
0.00702601
0.14049
0.0433466
0.139899
0.14811
0.0741804
0.137381
0.143752
0.109496
0.0788296
0.0652842
0.130123
0.137809
0.136048
0.143944
0.120069
0.0296323
0.133527
0.00315807
0.140394
0.135402
0.0648716
0.13209
0.143293
0.0391151
0.132209
0.122699
0.140017
0.0322448
0.105336
0.140803
0.131813
0.140498
0.137207
0.140084
0.136677
0.145322
0.136779
0.123002
0.1417
0.139485
0.131716
0.145545
0.140715
0.139442
0.140845
0.136415
0.103329
0.0158305
0.125859
0.140958
0.09768
0.0710083
0.00726629
0.0579594
0.138655
0.112171
0.128759
0.140649
0.140416
0.0274495
0.130466
0.143258
0.128216
0.121447
0.0859857
0.120843
0.13869
0.138664
0.092825
0.143272
0.139463
0.00639741
0.134978
0.0867971
0.140826
0.116326
0.141478
0.119274
0.137339
0.140567
0.142662
0.134397
0.139259
0.0394771
0.132438
0.139857
0.0176048
0.0117909
0.114745
0.14155
0.13952
0.140044
0.139495
0.145816
0.141647
0.139711
0.0188398
0.103708
0.143308
0.136355
0.0236958
0.123487
0.110402
0.119218
0.13752
0.140469
0.137969
0.0807171
0.116871
0.0137916
0.144103
0.140565
0.145095
0.101836
0.140347
0.141544
0.140347
0.111411
0.139858
0.142415
0.111728
0.0999152
0.143462
0.14001
0.131696
0.136508
0.146456
0.14018
0.12671
0.142966
0.123858
0.102752
0.141105
0.141104
0.120348
0.132378
0.0846967
0.113681
0.128747
0.119797
0.143967
0.141698
0.139845
0.0550963
0.140717
0.125681
0.122886
0.138048
0.140625
0.120581
0.130211
0.141079
0.0939953
0.140155
0.138273
0.0126493
0.1323
0.105689
0.0232819
0.139838
0.0931296
0.137411
0.140644
0.0675473
0.00383074
0.139967
0.128448
0.139946
0.137596
0.0704244
0.138639
0.0798176
0.138889
0.0250854
0.135351
0.139446
0.0233028
0.0931483
0.115103
0.14049
0.100841
0.127735
0.12452
0.1412
0.11402
0.11549
0.108175
0.139451
0.120675
0.107691
0.0559869
0.145635
0.142
0.13559
0.132025
0.0498025
0.124619
0.139459
0.129613
0.127465
0.139058
0.139242
0.141976
0.127506
0.145082
0.139624
0.142202
0.145232
0.0658402
0.135194
0.131495
0.143477
0.147308
0.140899
0.141423
0.116788
0.0195828
0.139427
0.140036
0.14009
0.0623996
0.143544
0.117567
0.134927
0.141324
0.0124982
0.0765453
0.140311
0.127238
0.0293549
0.13479
0.139736
0.134828
0.141229
0.0127894
0.132363
0.0620646
0.120351
0.13569
0.128386
0.115795
0.129262
0.134252
0.0288146
0.0183117
0.14535
0.139705
0.114231
0.148224
0.119758
0.0933715
0.0985504
0.139983
0.125739
0.135936
0.125728
0.141213
0.139015
0.140824
0.0565549
0.138381
0.141766
0.139998
0.146293
0.144142
0.136862
0.138433
0.145283
0.094356
0.134323
0.143259
0.100982
0.143647
0.138868
0.0981075
0.0227952
0.13269
0.14119
0.13441
0.0627477
0.135456
0.139231
0.129702
0.136197
0.139779
0.132244
0.140319
0.130458
0.0572636
0.100511
0.0123691
0.0150195
0.131222
0.12467
0.0492252
0.111023
0.143769
0.132212
0.140872
0.140162
0.121701
0.139329
0.0226039
0.143911
0.0907125
0.112142
0.128
0.132919
0.143179
0.130868
0.135535
0.131066
0.0822511
0.144103
0.136321
0.0726497
0.145053
0.141686
0.131091
0.147911
0.134257
0.0426924
0.13984
0.137366
0.0923871
0.142904
0.0170224
0.117817
0.13443
0.0455876
0.141027
0.140956
0.0996436
0.0758157
0.0496599
0.139665
0.130866
0.0214381
0.103292
0.136625
0.143278
0.142166
0.0360603
0.121609
0.126826
0.0100472
0.124708
0.123393
0.0686082
0.12447
0.125907
0.140114
0.139073
0.143713
0.111119
0.140488
0.107681
0.0616924
0.101371
0.142204
0.122429
0.129525
0.14238
0.0979624
0.142721
0.138046
0.0245331
0.0528973
0.138816
0.12877
0.0583226
0.091159
0.135209
0.136961
0.140148
0.0965481
0.140567
0.13846
0.128776
0.140664
0.139597
0.140482
0.0247603
0.0384463
0.127395
0.127222
0.140149
0.139256
0.00762622
0.140625
0.0285797
0.134743
0.13831
0.137388
0.140446
0.139041
0.0964645
0.136543
0.0172208
0.0718372
0.0484971
0.140216
0.127179
0.0358967
0.140627
0.131847
0.136932
0.122548
0.143748
0.142436
0.103429
0.122393
0.0320048
0.129262
0.0626966
0.136291
0.140122
0.0190102
0.140046
0.141812
0.134392
0.140136
0.110593
0.105829
0.141487
0.141574
0.11733
0.119534
0.0695732
0.143427
0.146655
0.0494568
0.0669535
0.141608
0.139496
0.0555487
0.143403
0.0844428
0.141348
0.124578
0.0134719
0.143459
0.0135234
0.140343
0.140591
0.139212
0.130627
0.134148
0.136327
0.13384
0.139789
0.139371
0.125499
0.139104
0.113569
0.117122
0.115801
0.105743
0.139643
0.08302
0.143165
0.137791
0.141011
0.146291
0.118986
0.0745123
0.137733
0.0311042
0.140623
0.140647
0.131642
0.138975
0.139225
0.142856
0.130301
0.1401
0.0863433
0.143978
0.142998
0.0783323
0.0854475
0.00831429
0.0664345
0.115421
0.133308
0.134914
0.140841
0.141044
0.124021
0.0137241
0.138251
0.127411
0.0405365
0.0816529
0.112614
0.14227
0.145858
0.138374
0.124229
0.14037
0.133549
0.0143313
0.103858
0.0383182
0.131262
0.143367
0.141219
0.143695
0.0206537
0.0247366
0.138789
0.0798076
0.140636
0.0961924
0.138075
0.127395
0.137375
0.0764985
0.139335
0.125812
0.0846894
0.140938
0.0766456
0.0967359
0.0720355
0.126337
0.147792
0.136697
0.139804
0.0978087
0.131742
0.13959
0.131577
0.137106
0.136161
0.139086
0.109885
0.143525
0.010147
0.143987
0.0702923
0.0311616
0.138306
0.140967
0.138231
0.14828
0.0239661
0.0571856
0.031352
0.0185152
0.143319
0.126815
0.0848597
0.14069
0.0169014
0.133157
0.0148522
0.141333
0.00313426
0.128708
0.0696821
0.144938
0.140032
0.116044
0.0115734
0.146383
0.14055
0.138964
0.138119
0.0886508
0.140536
0.130851
0.142923
0.138746
0.0666941
0.123443
0.141205
0.137122
0.116999
0.111129
0.140654
0.122614
0.119756
0.138031
0.136107
0.141545
0.140091
0.140369
0.123553
0.14103
0.0491361
0.138438
0.135757
0.0152477
0.140155
0.13975
0.136795
0.133957
0.0497403
0.141585
0.0945388
0.0689718
0.0740074
0.119018
0.0723538
0.105733
0.140213
0.0379493
0.140776
0.130418
0.132099
0.0582566
0.114976
0.138527
0.0635791
0.132705
0.0463038
0.0963086
0.0903031
0.12674
0.121562
0.145472
0.130546
0.109754
0.106836
0.12858
0.0232955
0.119791
0.128024
0.0663434
0.14698
0.0806783
0.140579
0.142897
0.0132209
0.0668903
0.0756006
0.1187
0.111725
0.138472
0.135279
0.143888
0.135017
0.145195
0.0147223
0.134713
0.108245
0.107225
0.105177
0.140636
0.123034
0.12166
0.0438132
0.139999
0.126893
0.138286
0.101074
0.146795
0.140796
0.0386694
0.135342
0.136025
0.0934119
0.0665887
0.133006
0.136656
0.118312
0.13604
0.14042
0.14099
0.106826
0.10937
0.127682
0.137197
0.141758
0.0919401
0.124954
0.138705
0.0115428
0.142684
0.141124
0.123987
0.130506
0.0179277
0.133827
0.0988552
0.0308082
0.137653
0.140816
0.0546694
0.145688
0.141173
0.140034
0.116828
0.143872
0.141847
0.143693
0.137768
0.140719
0.135928
0.135534
0.121143
0.140933
0.13916
0.138202
0.141811
0.140924
0.145576
0.109013
0.117426
0.125062
0.120403
0.0504924
0.0868722
0.140547
0.113286
0.133971
0.140194
0.137721
0.0991398
0.106832
0.095381
0.131474
0.141621
0.118472
0.145006
0.134652
0.0221948
0.137849
0.140712
0.135129
0.11934
0.0135477
0.104443
0.00431752
0.0571527
0.140899
0.13974
0.140118
0.060666
0.139704
0.0562066
0.138421
0.133967
0.136663
0.142898
0.138461
0.13708
0.135638
0.116208
0.140191
0.129517
0.0281223
0.144955
0.137719
0.108486
0.106684
0.141966
0.106
0.139891
0.0999122
0.138896
0.104258
0.140122
0.0468079
0.130703
0.141298
0.12564
0.141398
0.140108
0.138577
0.104555
0.145615
0.118326
0.133795
0.116233
0.140354
0.124057
0.118308
0.140169
0.140214
0.137865
0.140535
0.0820294
0.0257987
0.0932035
0.131988
0.140461
0.0871001
0.142756
0.136174
0.0123394
0.137946
0.10385
0.0965871
0.102834
0.138885
0.126958
0.139623
0.125347
0.132491
0.114871
0.137854
0.143144
0.126924
0.147528
0.142355
0.1314
0.142231
0.131972
0.0611935
0.138698
0.082922
0.0793586
0.118673
0.0184725
0.141937
0.0740708
0.14053
0.141312
0.0256131
0.118614
0.126518
0.145018
0.0434829
0.135824
0.139015
0.132839
0.143344
0.116782
0.142445
0.0792248
0.143377
0.0147282
0.0203963
0.0721088
0.0731948
0.140361
0.140734
0.142531
0.126845
0.00945225
0.13918
0.141533
0.131193
0.137421
0.118689
0.136839
0.0252606
0.134803
0.14023
0.136676
0.137481
0.128145
0.140203
0.111619
0.140321
0.132051
0.0831948
0.0911068
0.138128
0.143819
0.139359
0.134994
0.14174
0.0217273
0.0706034
0.0960982
0.140229
0.141149
0.101727
0.121241
0.0719539
0.131332
0.104596
0.0278571
0.114273
0.13338
0.119786
0.140432
0.0413301
0.136886
0.13239
0.122487
0.14006
0.127649
0.144675
0.146057
0.0661986
0.12044
0.141426
0.00827737
0.114609
0.131738
0.145365
0.139625
0.142063
0.140603
0.137799
0.131539
0.0614437
0.134551
0.141238
0.116439
0.138266
0.0457471
0.108031
0.135975
0.0130123
0.144289
0.136216
0.114909
0.143379
0.0221559
0.0555002
0.0389764
0.0818797
0.143477
0.130803
0.0128671
0.144861
0.00758206
0.144709
0.10538
0.13122
0.134117
0.139633
0.139393
0.115035
0.136645
0.135932
0.14163
0.0276797
0.0861963
0.142262
0.142407
0.14294
0.140191
0.132314
0.141463
0.140846
0.138044
0.143219
0.125346
0.0307704
0.134407
0.142283
0.143562
0.112006
0.109018
0.145499
0.109359
0.110027
0.0335137
0.132897
0.0433955
0.0334604
0.0683732
0.126225
0.0941238
0.123638
0.0960731
0.0905333
0.119438
0.0118249
0.125895
0.137607
0.108702
0.131779
0.135482
0.0609219
0.139595
0.139695
0.13469
0.119779
0.0806389
0.140326
0.140641
0.142024
0.140531
0.14782
0.141076
0.0450164
0.0848313
0.133833
0.13243
0.130919
0.137609
0.142481
0.0187251
0.137262
0.140137
0.135471
0.136284
0.13857
0.0922342
0.0137573
0.139892
0.124913
0.146108
0.0464791
0.142284
0.128939
0.14699
0.0107905
0.143346
0.0593986
0.134433
0.140683
0.0487451
0.116018
0.132597
0.139723
0.132498
0.0153929
0.115891
0.140552
0.140148
0.140124
0.137895
0.0962482
0.0126952
0.135042
0.134665
0.140108
0.140418
0.143239
0.0780374
0.060625
0.112982
0.10691
0.139834
0.0832206
0.0665195
0.139879
0.140432
0.0327162
0.0218024
0.144136
0.136798
0.120936
0.140042
0.133013
0.138439
0.0123686
0.0502397
0.141271
0.0382074
0.142282
0.140284
0.0788942
0.140896
0.133002
0.0409107
0.128406
0.139026
0.138342
0.106314
0.134788
0.0879564
0.129953
0.135936
0.141581
0.129239
0.0524866
0.143124
0.141385
0.14082
0.116887
0.143244
0.137676
0.146223
0.0948674
0.0151894
0.140661
0.123606
0.147605
0.139636
0.129291
0.111487
0.125746
0.0246555
0.128972
0.122501
0.135179
0.136023
0.143024
0.107849
0.110594
0.0789773
0.138067
0.0456811
0.124395
0.139798
0.137887
0.13307
0.111607
0.142577
0.0933313
0.135483
0.0980187
0.135182
0.143767
0.134522
0.13888
0.0372451
0.118394
0.132939
0.0125444
0.140635
0.131673
0.136833
0.118613
0.0675562
0.138264
0.118152
0.133504
0.135129
0.146777
0.116008
0.110347
0.118111
0.140342
0.137709
0.0688845
0.0312221
0.128544
0.135593
0.0385292
0.13814
0.0753168
0.13985
0.0461851
0.04454
0.137911
0.130952
0.141776
0.0946138
0.140192
0.139923
0.143462
0.130608
0.0923013
0.140444
0.14178
0.137448
0.137753
0.0885532
0.118157
0.137755
0.137175
0.131936
0.139134
0.139338
0.130771
0.0672876
0.133679
0.0262488
0.0187286
0.143916
0.109947
0.140183
0.115035
0.0838603
0.119332
0.139581
0.140457
0.133216
0.0561551
0.131918
0.0234908
0.0483177
0.122051
0.0131568
0.138156
0.140756
0.116468
0.140031
0.0368315
0.119232
0.143247
0.140375
0.11893
0.140571
0.108688
0.133613
0.112625
0.0941678
0.136329
0.137773
0.0388502
0.128012
0.121251
0.080165
0.14559
0.0858529
0.101319
0.140048
0.130521
0.134843
0.136708
0.11842
0.135725
0.130534
0.137844
0.138956
0.144436
0.0518919
0.120724
0.137946
0.142763
0.140022
0.134644
0.105573
0.140865
0.0998201
0.112106
0.00271499
0.13716
0.140507
0.126445
0.13172
0.138841
0.136012
0.0358573
0.142188
0.140179
0.134731
0.144668
0.143707
0.106358
0.135722
0.0711163
0.13215
0.132266
0.0528075
0.118901
0.138488
0.142364
0.0747126
0.125104
0.0421538
0.140233
0.0565691
0.114475
0.136945
0.139804
0.05969
0.140786
0.122411
0.0378996
0.0750285
0.138311
0.141675
0.0146771
0.134144
0.135439
0.139242
0.123907
0.141657
0.117982
0.117383
0.123355
0.126167
0.117382
0.130755
0.138621
0.133624
0.136187
0.0618907
0.14471
0.138082
0.145391
0.139117
0.140363
0.140666
0.0132141
0.0892861
0.133251
0.0673654
0.114212
0.141812
0.141346
0.133783
0.0880614
0.142662
0.0936746
0.0608341
0.0228302
0.0776558
0.140951
0.133328
0.0744749
0.0505978
0.132518
0.0351029
0.143076
0.137694
0.135562
0.140145
0.132911
0.0743781
0.0842692
0.090704
0.135951
0.080689
0.0962924
0.0960779
0.144808
0.0704932
0.104554
0.134163
0.140229
0.13644
0.112821
0.142005
0.139361
0.132301
0.138007
0.0176486
0.126594
0.118956
0.130392
0.138103
0.140727
0.0519418
0.132828
0.128849
0.112344
0.12788
0.123417
0.129833
0.13504
0.119514
0.130012
0.129842
0.098415
0.132903
0.101667
0.140991
0.107541
0.141184
0.139575
0.122815
0.135056
0.07344
0.140189
0.132927
0.129962
0.140187
0.138388
0.140282
0.0222154
0.142177
0.136505
0.141296
0.126916
0.134023
0.140845
0.13451
0.140743
0.144176
0.140033
0.124357
0.140172
0.140027
0.0219095
0.0273693
0.140085
0.130773
0.140153
0.105792
0.145767
0.0386519
0.135758
0.141262
0.140333
0.141569
0.0427193
0.131856
0.121464
0.144543
0.141
0.140018
0.102842
0.129178
0.0295339
0.0504394
0.104751
0.0949671
0.114792
0.00570718
0.140451
0.117248
0.142101
0.139719
0.142498
0.139612
0.140102
0.0656732
0.134083
0.130823
0.136154
0.142933
0.138
0.138456
0.13967
0.131825
0.0205528
0.0658081
0.125688
0.00670602
0.106205
0.133192
0.13051
0.139599
0.14534
0.139716
0.128974
0.128029
0.0628362
0.138658
0.140054
0.0433746
0.115079
0.138634
0.141164
0.127676
0.140035
0.136953
0.124753
0.13305
0.141466
0.145638
0.124473
0.0980578
0.126949
0.122571
0.0172464
0.104222
0.110219
0.0226453
0.138455
0.140407
0.0451525
0.0129718
0.0807996
0.0980685
0.110354
0.137465
0.143974
0.126882
0.0153228
0.14555
0.133979
0.0268049
0.139841
0.12735
0.141438
0.141224
0.126408
0.0470103
0.140749
0.136105
0.145855
0.0214794
0.0985919
0.138772
0.143071
0.142225
0.0730871
0.138682
0.124854
0.137693
0.130637
0.103304
0.112772
0.0930757
0.138538
0.140185
0.136946
0.140262
0.106821
0.135509
0.14166
0.0832827
0.127287
0.134301
0.00633091
0.144255
0.139058
0.125061
0.0371482
0.141115
0.140396
0.00338783
0.130831
0.0168791
0.134943
0.0950506
0.114025
0.139547
0.132362
0.137578
0.13382
0.0642664
0.140137
0.135384
0.128253
0.131009
0.146751
0.139205
0.138937
0.136467
0.12235
0.144968
0.145219
0.121219
0.0204192
0.0081172
0.137678
0.125372
0.0883689
0.140827
0.0312976
0.0315063
0.140878
0.029092
0.0848374
0.138742
0.143124
0.13997
0.0907714
0.139563
0.00839538
0.0919416
0.0560734
0.140368
0.146352
0.136033
0.139769
0.141001
0.0923593
0.142886
0.139572
0.14101
0.140259
0.140059
0.133478
0.134435
0.113365
0.024813
0.0625522
0.119137
0.129998
0.140583
0.145134
0.140141
0.138437
0.139879
0.0968625
0.141908
0.138226
0.137886
0.146947
0.121752
0.141503
0.0909963
0.115232
0.1297
0.139773
0.143002
0.1436
0.00982935
0.140472
0.113908
0.0668663
0.141766
0.140937
0.139744
0.137903
0.146888
0.129624
0.140409
0.137965
0.141698
0.140871
0.0962706
0.104511
0.123072
0.11757
0.132628
0.124058
0.122973
0.127634
0.140992
0.125253
0.12409
0.137507
0.0399765
0.0489003
0.143726
0.128275
0.131738
0.131292
0.0989482
0.0836402
0.0335013
0.077548
0.134123
0.135771
0.136708
0.140367
0.1425
0.129764
0.123539
0.0996563
0.125638
0.132048
0.087743
0.122965
0.0381105
0.14056
0.140085
0.13078
0.0119543
0.141846
0.127668
0.14046
0.146786
0.119106
0.139951
0.144548
0.13307
0.0847347
0.13996
0.126102
0.137947
0.141441
0.139964
0.140335
0.124915
0.139886
0.0662777
0.130723
0.119963
0.1314
0.137933
0.143026
0.00252327
0.12138
0.140158
0.140172
0.0973985
0.139405
0.102631
0.14074
0.0721875
0.145704
0.0654762
0.0994958
0.138276
0.13931
0.0935895
0.0583172
0.137045
0.147738
0.140136
0.044421
0.140882
0.0516563
0.146866
0.141382
0.140096
0.135166
0.129066
0.111171
0.140143
0.0916971
0.1375
0.1401
0.0440497
0.141314
0.0525513
0.140455
0.116456
0.0654209
0.128401
0.136738
0.118158
0.0999949
0.14005
0.0279439
0.135592
0.0312192
0.141636
0.137093
0.142308
0.14259
0.132929
0.140057
0.139948
0.127439
0.128251
0.0247766
0.119247
0.140353
0.104007
0.13295
0.0946568
0.139463
0.135852
0.137903
0.140118