/*--------------------------------*- C++ -*----------------------------------*\
  =========                 |
  \\      /  F ield         | OpenFOAM: The Open Source CFD Toolbox
   \\    /   O peration     | Website:  https://openfoam.org
    \\  /    A nd           | Version:  7
     \\/     M anipulation  |
\*---------------------------------------------------------------------------*/
FoamFile
{
    version     2.0;
    format      ascii;
    class       volScalarField;
    location    "50";
    object      p;
}
// * * * * * * * * * * * * * * * * * * * * * * * * * * * * * * * * * * * * * //

dimensions      [0 2 -2 0 0 0 0];

internalField   nonuniform List<scalar> 
11372
(
-4.23377
-32.4522
26.622
-20.3762
0.104552
-34.0521
-6.1778
-9.51299
-1.64219
26.95
-3.35954
36.0516
-30.7338
-0.245859
0.926395
-22.6653
-11.7821
-10.1175
10.0884
12.5681
-31.2188
-0.256098
-15.4551
-35.6461
-7.62247
0.847569
-15.7066
3.42656
11.0162
11.4981
11.3491
10.0113
0.278116
-0.424417
54.6905
-0.365476
-1.13841
-0.152425
-2.83987
-12.0822
-22.5638
10.7426
-1.09108
41.0216
4.70611
-5.34715
-7.31017
-0.999236
-41.8247
-0.457568
-42.8261
-3.91292
25.5678
-1.50968
9.46846
-5.46096
41.2501
-38.0272
-0.568862
34.1614
-34.2771
-0.470532
-0.176591
-41.0856
1.22532
-0.431522
-15.852
-9.49078
18.6938
-36.6917
-0.204861
-3.25201
-1.27344
-2.19403
-22.2777
10.3151
-13.5774
1.34858
9.84151
-45.9033
-1.05122
36.0453
60.1958
8.82413
-110.044
-45.0134
0.895783
-1.39311
19.0282
-42.9743
-0.964391
4.81546
-37.179
5.53788
1.9511
1.73572
-8.56078
1.85166
-21.3281
0.866474
7.28633
23.6273
9.39231
-0.551743
11.6004
58.3152
-39.7406
10.2385
2.66185
17.6207
3.98674
20.185
-12.6879
10.5643
0.334382
6.39799
-25.8441
4.2212
-0.31819
0.838149
-1.02731
-13.9756
1.70273
5.31758
31.4769
11.8682
-6.17123
-16.8059
-4.03504
-33.2726
-4.65671
-11.9371
-40.1023
-29.62
-7.65037
-1.97249
-8.27118
2.05706
53.6239
10.0245
1.17593
10.1999
-28.1489
4.31414
0.00424579
-11.3392
-19.8867
11.9687
11.2471
-32.0581
0.205593
-27.5065
-12.2936
-33.369
7.14494
-0.975011
-2.77928
-2.19742
1.31061
12.0642
-4.43583
-0.627052
-25.3638
10.0932
-41.365
-15.9622
-19.0147
-17.7317
-0.770571
-1.56528
-16.0869
-0.245824
-14.5253
-24.8511
0.236149
-49.5247
8.83789
-3.91716
-56.2564
8.69219
6.99872
13.2928
-47.1121
-7.09195
-9.52027
-31.416
27.8429
-34.218
24.1495
-42.4697
-0.0755671
10.8129
25.272
-6.42863
-15.9569
-4.56448
-8.44352
11.522
-36.7143
-12.4754
11.4354
17.1011
14.4338
2.46345
3.60974
-3.72518
0.932644
-4.42594
-6.48972
25.4182
-60.0485
-2.89628
-0.148592
12.3617
10.7291
-2.95713
11.0275
12.9598
-4.13804
-23.4124
-8.43327
12.4683
57.7449
-25.831
10.4108
-6.51291
-38.9143
-1.78418
10.0004
3.38604
8.94488
8.99174
-18.2493
-0.0957051
-13.4842
-28.2693
-28.0447
1.37745
-2.72894
-16.3074
9.95091
-49.3319
5.73003
4.31321
9.92811
2.79803
11.9706
-0.925119
7.6824
-50.135
-0.484195
-0.0936411
-93.3605
-0.148211
-37.9904
14.2604
-10.7591
5.92119
16.8965
5.89696
-21.7574
10.515
1.26863
11.5352
31.5751
-11.7051
0.856421
-6.39258
55.777
-13.7948
63.9412
-2.25876
4.01059
-7.45705
-3.4493
-35.1576
6.72547
0.982694
4.66046
0.169107
-0.075531
6.32765
12.7857
5.41179
-24.1024
0.0464607
-7.79027
-42.5884
-0.720122
1.20885
-16.707
10.6486
-15.2168
1.1065
-33.9908
6.26318
-17.3872
2.776
-9.15359
-27.2191
9.81864
-31.7093
55.9348
1.28505
-0.49682
-3.91614
39.3962
-0.402216
9.23425
-2.71322
5.8916
9.68871
1.67767
-85.5945
3.52586
6.71343
-14.2367
-20.6366
-12.6295
-30.718
2.24645
-26.279
0.239181
12.5059
11.6017
-16.8189
-19.6533
18.3956
-8.67633
-5.35048
2.08728
11.4647
24.0814
-17.4572
-0.160987
-20.9396
-0.253419
-44.7808
3.90951
-8.43363
-17.7438
0.0912622
3.44279
-2.15631
-0.824202
0.401381
-1.5659
-4.64038
32.9031
10.0538
34.1584
-14.4307
22.1412
24.7074
11.1696
-21.6871
40.7556
20.3492
0.0713358
10.9503
-1.35445
-6.65678
11.9528
0.225123
3.42837
-39.1092
-16.7259
45.2377
24.6854
12.6298
11.9445
-1.42955
-27.1605
-18.4765
1.06422
26.7885
39.6986
10.7135
-25.0697
-15.1124
0.59215
11.8737
-5.90987
-5.01551
7.12521
16.7695
-36.7814
2.3409
-14.8142
-4.12538
50.8615
-33.5601
6.42108
-6.03803
3.16781
-3.31945
-0.135375
-90.4248
-14.8061
-20.6416
17.5304
-2.39528
-0.198208
-24.4031
-1.05697
-1.47574
55.4926
-2.08286
-5.13931
-1.43442
8.64603
1.39346
-0.962721
-44.7337
-34.2749
-40.9088
-29.2862
9.26365
-0.447814
-1.76628
1.81295
-0.627418
5.06598
-27.0128
10.1528
9.31044
-39.4385
-0.271275
19.0565
9.58411
-0.577047
-0.371601
-0.333573
-37.9203
0.795121
4.67715
2.32118
12.3526
-43.1872
-3.35335
-21.3254
-1.85194
9.29074
-3.27889
1.44116
-20.8179
-37.7051
10.9991
-39.2184
44.269
-0.691763
-43.1871
-3.07936
20.8249
-20.0678
-7.80137
1.33338
-30.0707
10.5119
-0.0592926
0.248296
35.6938
-10.069
-12.0421
-8.52546
25.9166
-3.00192
-9.68894
1.52581
14.7507
-1.5166
26.07
11.9484
-3.82439
48.9244
20.2875
-26.8249
-0.166514
-1.07318
-0.96309
12.4108
58.1107
-34.4542
4.83151
0.582908
-38.1353
1.59427
-10.2917
-0.276223
3.25216
-33.4738
-0.146995
5.2102
-0.211982
-8.50282
17.1183
24.0934
-0.527234
11.8249
10.3606
8.66125
-30.6987
-36.9109
-17.6337
16.6526
-2.07879
63.3957
5.16931
-48.4753
-0.0566424
-10.2231
-0.747189
-17.0033
9.78653
9.44383
8.21149
20.785
13.0672
23.7601
-12.279
-4.96857
2.59975
2.19501
-1.23968
18.0949
4.08331
-45.9574
0.310948
-34.9283
-5.50381
1.40587
-1.51905
1.95447
-8.70255
-0.646774
1.0681
0.342905
-1.14213
-21.3278
11.2457
-0.199948
-38.5446
3.98518
16.623
11.7857
-4.18821
12.798
-7.14508
-42.3543
-43.9061
1.26089
-4.2608
-19.921
10.8961
1.10534
4.19947
43.5032
9.93811
-6.12241
0.555693
10.1164
3.04314
-0.390828
-26.9979
1.2027
-3.9703
33.6596
-21.933
-8.70399
2.37613
0.149017
-5.10499
3.52973
-51.4961
9.01354
18.464
-5.47304
-36.5753
-1.34455
5.82832
-1.29155
-4.05777
-29.7932
-19.2522
-20.2962
0.177588
1.39019
-1.30657
-57.9811
-0.177076
1.30074
-6.42949
1.78277
-45.0722
2.6625
-11.2067
-18.3571
-0.952016
-16.7764
-37.7779
-11.6553
-6.01392
4.36133
-43.5813
9.8797
0.970475
-0.606637
2.14737
1.08036
-3.23955
-40.3253
-0.749015
11.4568
7.70623
-26.4894
-1.77824
-36.6757
-3.92283
-9.59693
-6.92149
-21.7421
-14.0429
23.9532
24.1603
9.79319
-4.96893
-22.3147
-26.6507
-12.1847
2.3961
-45.2863
10.796
-5.11552
-0.497369
-31.4093
-5.42058
-38.5879
9.55577
0.489354
-9.59933
8.8714
-1.09746
-0.0332484
0.928856
12.3845
1.47379
-5.98573
-16.5598
-25.4531
-0.377892
-0.371665
45.6821
-3.07351
25.0585
1.56747
0.922648
8.81569
-40.6256
12.2522
44.4258
-0.426742
-0.0575056
15.8278
-80.4229
1.78406
-41.5129
49.2777
44.0074
-2.31095
1.30525
-37.6002
15.4625
11.5953
11.1304
0.638266
1.4525
-1.61301
5.3985
12.4766
-2.70732
10.2748
-3.16579
-38.5462
-16.8335
-13.8388
-0.863797
0.106979
-0.0328029
6.21152
-0.911432
8.44439
9.32205
4.79049
-9.98226
9.1689
-2.28996
11.4897
10.4854
-7.49379
-1.47857
-37.2252
-19.7941
-33.5432
0.513981
-5.96477
6.12502
4.29246
6.51497
1.70889
11.1654
-26.2279
-37.0995
6.84802
0.316112
9.78395
14.1562
-0.714134
0.0290099
11.2737
-2.60669
-17.3602
-8.69772
30.2166
-13.4723
-27.1367
3.94635
1.18645
0.365076
-2.57315
23.7119
-48.9263
4.11905
0.227742
-1.9947
-0.581571
-27.0532
26.6846
0.0268051
-3.09225
-1.27595
1.6914
-77.2872
-11.3059
-15.8473
-13.2062
26.3306
23.6456
-31.3824
-4.10198
-8.41364
-32.1946
-41.2485
-25.5237
29.4105
-23.9778
10.7364
-4.78305
6.82136
-8.00823
0.998241
-39.3903
-35.5817
-29.8275
11.7542
-4.43052
1.25169
12.2362
-0.418235
-31.42
1.02139
-35.0586
7.81763
-8.61409
-1.77351
3.51603
10.1485
30.9182
-17.254
9.55224
9.27726
-1.81936
-98.601
17.854
-43.28
-2.40508
-33.6324
10.0353
-75.7704
39.6447
57.0822
22.3543
-2.02384
4.6749
-1.99604
-53.9736
-40.5154
-12.1897
55.4818
-5.14234
-0.0744822
15.103
-0.819241
-6.23804
-37.8048
-44.2066
-5.93468
12.4213
7.64646
-23.2432
-38.6873
3.70633
-34.9448
0.308289
-4.12986
4.97841
-1.20369
1.42114
36.5856
-0.443391
-2.63773
-28.6877
-36.2152
2.51341
-24.4396
0.982876
33.7144
-33.6193
52.9467
-21.567
-0.516967
-33.2122
14.3696
11.288
25.0546
1.09255
-36.6227
-113.915
-34.6763
-0.764668
10.8611
-45.6303
-2.05801
2.62458
-19.9072
0.0565381
19.3448
-26.0567
27.3798
-7.17851
4.12413
-75.0681
-18.7025
-11.4598
9.76608
13.2014
-45.513
-0.202745
37.1499
11.1572
1.39628
-24.9544
-3.56247
-1.14886
-31.5149
-42.6603
-2.67745
7.7957
39.3397
-0.460211
8.12061
4.49393
0.272594
1.90374
11.0791
7.29132
-25.1673
25.0816
16.8301
-3.7785
-8.22602
-2.08174
-28.1733
-4.03557
-0.285057
3.60343
-1.67635
34.6394
2.45038
-0.35916
-0.226747
-2.03407
2.69573
0.814244
-0.740107
-16.3419
-0.626201
4.02563
6.91791
4.28447
25.6852
9.56259
-0.0812058
1.91146
10.0032
-32.0969
-16.1478
0.400733
0.413559
0.80707
-30.4134
-1.15872
1.82423
17.1995
23.0814
-18.889
5.69511
0.285775
0.333975
-7.01492
-30.7163
14.0545
-3.76446
1.33846
-1.19727
6.27156
-20.6401
-3.95723
-45.2599
19.0996
-0.195481
4.33942
0.838291
-8.74502
18.2377
9.98305
21.4414
-33.9638
0.282851
10.0973
-38.9084
13.5526
6.87321
-1.28265
9.50597
18.8526
-0.496838
-22.1317
7.63791
-1.15179
8.91629
-2.50948
5.7839
2.91171
-26.0013
-5.99757
-0.201255
-3.72156
-2.80646
-10.8137
5.16849
3.21865
-78.6478
-2.00632
-0.0906547
7.93935
14.1009
8.97261
-0.752171
-9.15438
42.0774
-23.6673
-0.869682
1.56927
-1.12057
-30.3309
1.55738
-1.02998
-1.59518
0.943381
14.4628
-33.1321
-1.10951
23.8994
46.373
-12.5591
14.3611
2.71497
9.64255
10.7501
18.3789
-6.87742
11.514
11.9515
-2.38587
14.2792
-7.44641
-0.772656
34.6562
4.21568
-4.65536
-22.4639
-19.7316
11.313
-5.10338
-0.273091
-7.9441
-0.148436
3.88
-35.1139
-2.19278
-1.02087
-33.3445
1.26581
-8.48701
-0.0709528
-12.3513
3.22542
16.5275
-12.0206
-0.143183
9.87148
-30.3383
6.53191
0.42046
8.7982
1.7933
59.9419
0.328748
-7.00815
16.1777
11.7376
0.0708216
0.505828
8.20281
0.415559
-2.10493
20.004
1.18026
0.99292
13.5031
-0.332552
1.5806
3.98127
2.61633
-0.0536596
-33.8226
-2.32294
-18.0212
-8.75705
1.69332
-0.468648
-20.1456
8.60848
-6.4708
9.92105
12.5862
0.747139
-22.117
8.54064
12.1246
-22.8593
-2.27301
-28.5661
-10.8617
10.1392
-36.119
-53.6005
9.82195
9.06877
-21.7913
2.71206
-46.6951
-35.6235
-5.22527
-9.75597
-22.7514
33.5611
-0.237042
-3.04771
0.0278575
-1.55022
-7.31949
17.5331
-14.6495
-6.51258
-2.5037
-3.63215
-5.58576
6.85445
-3.0119
-34.4719
-41.7602
-0.278843
-27.1678
7.02889
52.51
-3.2459
-19.3955
-32.0618
-4.80204
3.94094
10.0722
46.2637
8.47638
14.5971
1.13471
-0.370889
2.49505
54.6431
10.6713
11.6119
-39.2638
-15.5106
-41.4035
-28.7255
-8.2012
-20.014
15.6189
-6.30415
-0.773656
23.9226
-0.0106955
0.721317
-32.7522
13.5308
-0.642159
-0.321808
12.9463
8.71008
-30.3116
-0.0101235
-1.01278
8.73358
-1.0508
-5.89675
-1.97775
-3.20178
-4.33944
-6.43489
1.13445
-63.9722
11.0986
55.07
5.76408
-0.840279
-15.4286
15.6985
-1.25594
6.98622
-63.6675
-0.901912
-28.656
61.4725
53.7469
0.350992
-24.9046
-24.2814
6.54855
-1.37264
-0.569134
53.9131
-9.93909
8.673
-0.155102
9.83878
9.83465
62.3055
-12.5157
-1.52652
8.00073
-6.54152
0.439019
-0.139124
-12.1791
-2.14363
-0.850352
23.3169
5.28657
-1.5234
-5.11038
18.0497
-0.339659
16.4583
-4.96316
6.02081
-0.159358
-16.4891
23.0405
18.5907
-1.32065
-9.92505
-8.07411
-24.976
-0.198887
18.0306
-1.3806
-0.519378
-42.7299
-31.6262
5.34589
-38.0802
-3.02219
1.54384
-6.12928
0.678903
-11.176
-0.980028
-16.9066
40.5917
2.87512
10.2061
42.4683
-5.44419
30.8197
-42.6538
-1.70873
9.64004
-0.745264
-2.19914
-6.63694
42.5557
14.0836
-35.3795
11.3081
-23.2662
13.2485
-36.9084
-0.493749
-35.2575
34.4283
-0.405485
1.04455
2.49362
0.841283
-1.88782
-5.46724
-2.0422
0.472324
16.5815
-23.3219
-44.4985
-1.46481
-66.9028
4.01405
-36.8199
24.6869
10.326
4.84832
-39.8589
12.5484
-0.821345
-0.969289
-18.8347
-0.0910809
-39.1577
2.98001
3.98878
-3.44
-31.3203
-10.7375
5.87503
0.832745
-8.73949
-14.2757
-34.7177
-4.77405
2.10895
-6.77445
-23.1644
-36.453
41.3956
-24.5395
10.4713
1.98304
10.2278
-28.9956
3.99323
1.98363
4.72169
-0.533592
5.27772
-18.9024
-29.8438
19.9078
-31.5296
-37.298
26.2071
-1.27457
-14.8664
10.9396
-2.73059
-0.144879
8.62245
-31.9075
-20.4813
10.1289
-38.0094
-11.5609
14.2703
-42.0382
8.18255
-0.26076
-0.787674
-1.21048
2.33375
14.1413
-17.9948
9.26661
-23.2523
-1.11682
11.4232
2.79546
7.61818
-3.14367
21.0827
1.37274
-4.00297
2.18876
2.24397
-1.60245
-8.5373
9.87183
15.4307
-0.255785
-106.444
-0.476629
-0.567341
-80.042
2.20176
-5.43647
0.613856
-36.2269
-37.6533
-39.2459
-2.35207
-1.46256
-19.0316
35.1872
-0.204274
-32.1696
-27.4891
-0.0960025
-18.9057
-20.6699
41.6103
11.1099
0.291522
-44.4507
1.95389
-8.76146
-0.0818882
1.22379
-0.379268
15.1078
47.6419
2.04999
-41.3841
-1.88957
-2.3029
1.2571
10.3095
-24.9778
18.5356
50.1121
-7.71022
9.99105
0.954436
28.4143
-7.0823
4.4476
26.6225
2.00108
-0.194627
-6.22119
-4.99632
-5.5158
10.8236
41.0561
12.5035
17.348
-46.5821
13.842
7.83717
-5.93495
16.6643
1.15136
-17.0852
4.28678
20.4906
12.9643
-40.2412
-11.9649
-7.1999
1.78614
-19.9694
-24.3081
-2.82696
7.45252
64.1343
1.69974
-11.4285
-5.68692
12.071
-45.8619
13.7026
1.04265
35.3749
31.3354
-3.2798
46.8335
-43.6581
26.9275
-0.547667
1.50306
-2.33737
3.03952
-43.1269
43.5644
-0.733753
-0.21209
-6.36837
4.67028
-0.462248
-3.28219
-32.2777
6.74881
-1.5768
-4.70925
48.0557
-2.61176
-77.4688
3.60779
-66.5623
11.7461
2.58222
-0.63359
-18.0987
-13.8302
-0.263789
5.60129
11.8549
10.419
-1.46677
-26.6311
-7.9514
-3.83955
25.8159
13.7756
-5.15625
10.0537
-1.08272
-32.686
-8.27757
21.5626
2.17917
-2.98072
12.622
-0.146683
-1.70251
4.83586
-0.00559814
-2.79629
-45.4722
-11.5919
10.855
-11.8551
-14.3233
0.00918944
-45.3029
-0.0670813
9.8918
-6.27603
10.4419
-3.99453
11.3458
-4.63071
-0.197821
18.2569
1.06727
-0.848804
11.9858
-27.3447
11.2868
-33.4773
60.107
-13.9291
-70.6652
31.383
-15.1855
-37.5468
3.786
-35.1475
9.21966
0.13063
-39.5069
-2.08085
-1.59232
43.1153
-29.1226
36.7108
-3.42488
12.1589
-5.63916
0.178945
-1.55359
-40.3641
-5.00611
59.9005
4.963
2.31889
-40.2523
2.43137
-0.295342
-35.8116
-3.17233
25.4118
9.49025
-79.6338
45.1912
-0.62345
0.278973
3.70507
12.8159
9.46587
13.6149
0.716877
-1.88425
12.7432
-1.1494
-1.0339
16.5816
-0.170633
3.35139
-0.967625
-2.82415
-2.76485
-17.4239
-2.97619
-6.31244
1.14184
-26.8069
-26.6233
-37.0273
-24.1505
-1.11442
-13.6703
-7.05962
2.79491
-1.18808
-44.5584
-0.219613
-0.124004
-6.06614
34.3568
-18.9841
-11.2921
-2.59082
4.25592
-13.1094
-0.490299
10.3929
-38.8778
1.8733
-32.6196
-4.55054
-13.7683
-2.40332
-7.44272
12.6335
2.9826
-1.80373
1.72613
10.4159
-43.3021
-4.17822
8.79063
-33.934
63.1489
-7.63524
-0.333215
6.06796
-0.000851071
5.07687
-0.463422
0.191859
-1.08658
7.40709
-21.6964
-0.312119
1.95433
-30.1084
13.1254
-22.4981
-17.6666
12.4939
4.53364
11.8011
-45.7913
-10.6963
-82.4503
1.11708
-0.723279
0.783275
-3.81736
4.12205
1.31306
2.27224
-16.533
4.58337
1.4641
-13.471
-24.5563
-2.09719
-2.20819
13.1234
4.2221
-0.0147943
8.20368
-7.96919
-1.70574
-10.1718
-27.3665
1.04336
-0.929542
-8.86652
-9.08648
-17.7503
-17.4005
15.5314
-11.9356
0.921498
-0.235035
4.93018
57.4941
1.33994
24.6737
-10.8658
11.7362
0.62125
35.2658
8.28002
0.52979
49.2828
7.51166
-0.840242
-42.326
-3.74943
-19.6398
-39.6246
10.0159
-12.2694
10.5402
-1.00846
-28.4034
-31.2552
9.73317
5.22468
8.89625
-0.681058
-23.1445
11.1227
-18.471
-5.09442
48.7905
-2.63556
10.2803
-75.6532
-18.8675
39.2079
4.97577
-25.8199
1.86992
-12.1884
-0.609833
-17.5835
-8.43936
41.6851
-0.951317
-11.8006
-15.9853
-64.2064
-0.0648134
-1.31716
11.3885
-5.13301
-37.4084
-6.75359
-1.87735
-2.88362
21.1778
-0.593015
1.94546
-3.00936
-7.54707
-1.07077
10.1696
-0.360166
-1.05168
49.4863
16.0235
-7.51204
1.27098
0.130432
0.0865015
0.590096
-1.04308
-65.1807
1.89065
9.38218
8.83391
38.5512
-0.0838096
21.927
12.6536
-0.651852
46.83
-27.2882
-0.329937
-8.00598
-43.4013
1.56952
8.21811
16.8365
-3.46935
60.2726
-3.26737
-23.0904
36.3987
-1.82417
-7.47449
-6.48827
22.0636
14.7059
-39.6382
-44.3369
0.908883
1.86088
9.90311
0.212868
-15.7467
-9.2543
-7.98621
1.06965
-10.3039
-4.30457
23.9517
-0.465273
3.73581
2.35855
-33.2881
0.479279
-0.342924
9.83071
0.126385
1.22508
0.222575
5.91794
-1.01398
-11.7711
-2.45907
-0.242172
-13.0516
-0.675319
0.792436
47.7385
-44.7301
-3.20359
-0.415287
16.8016
53.8142
15.2536
5.9377
23.5779
-5.61837
10.0867
-5.02533
-3.03317
19.6354
-31.8142
-7.64553
-12.6058
-37.3913
2.15221
19.9261
-44.0033
-14.9619
-0.816271
1.44816
1.04821
3.49217
2.18153
10.4423
-37.0303
-1.67559
-10.3489
-7.59928
14.9559
7.78605
-0.252741
-4.85405
13.1833
-4.31911
-33.1307
0.403333
13.3261
-33.4592
-0.0196572
-0.589563
-1.79131
-0.260237
13.3711
-43.1777
8.9988
12.5971
-27.8323
-0.361752
-42.6574
-10.1083
17.5491
-55.7433
-0.17421
-0.0300563
-8.06413
-49.3111
-46.2238
1.39221
19.6594
-78.044
-21.0532
-2.29684
-0.0458424
-0.513793
-34.4595
-1.98665
-8.38705
-42.2591
2.25476
-10.8031
-18.5843
-9.73594
27.3784
9.35074
-2.69841
1.32611
-20.8998
4.98852
-14.7244
-25.2525
-17.5564
0.451315
-2.35979
-9.67137
1.27782
42.0484
-0.994423
11.8294
-51.7803
-57.6441
11.0372
24.1805
-42.7968
-29.4925
-3.47698
-7.20912
8.32031
-25.2155
3.29922
7.49012
-5.24067
1.7346
-0.720359
-0.327447
-42.432
-31.2857
26.6888
-7.28645
9.12566
-4.16009
-82.3478
-2.32591
-36.6658
2.26585
3.03197
7.99726
1.41354
10.7011
-27.1687
13.5798
-57.6561
-29.2541
-7.09573
4.89307
-7.83494
57.554
-2.03619
7.23518
0.758188
-10.47
-1.13214
-0.214405
-14.1233
32.2443
-33.1759
-2.78925
-10.0125
-2.37697
7.64608
61.7691
9.1016
-2.68108
-2.6673
-0.732948
39.9773
-12.5516
-2.74927
-0.72203
-14.9757
30.0333
-25.3251
-0.14699
0.0934132
-29.6004
-44.9204
-0.37082
-1.00908
-44.3444
-1.42289
-19.1551
-0.600635
10.8642
62.3329
-2.05743
-35.1382
6.09106
3.02302
10.4453
11.015
-3.84593
1.0288
13.2468
10.0611
-3.45158
-13.5864
10.5471
-15.5896
24.624
-16.9816
-15.9258
1.62896
-33.8853
-1.75412
12.0966
-2.01424
0.691402
35.3503
-30.7847
11.8634
-44.8163
2.8767
0.774119
-4.90909
10.6929
-1.51186
1.19006
-4.20899
8.39831
-21.3647
-0.0058269
-0.317495
-41.2438
-18.3474
-92.0584
-37.587
-16.4476
17.9009
-2.97003
-1.72513
-0.0451037
4.77154
-23.7262
9.75368
-6.14259
-30.0557
-10.2848
-17.7994
0.929462
0.33855
11.3976
-9.95706
5.6494
18.0453
-27.0945
-12.056
-31.6508
-3.69916
-1.94771
-0.919361
-1.18386
-44.4575
-37.7757
-3.41248
-29.4155
2.65946
23.6
2.1888
5.89
12.5493
-21.7147
7.84728
28.453
-42.2702
1.61842
53.5906
-34.6334
-25.8779
-3.75751
0.0637494
-2.03204
3.26606
-18.1597
-4.32501
9.17139
7.07628
12.9443
-6.44484
9.96683
-3.56882
0.0520594
-36.8444
-1.26832
8.22254
-38.3181
11.3883
0.903427
-1.61938
0.306724
56.1844
-43.7962
-41.1237
17.0628
1.34916
-7.88376
-33.2108
-2.35763
-44.9013
14.5102
-96.5342
-2.08595
62.5064
-2.17706
44.3625
-1.00852
9.51437
-13.8112
-39.2257
0.205024
3.88242
10.8682
-1.34717
-14.6845
4.3471
7.51867
-0.324856
-0.557276
55.3454
16.2873
-0.438382
-1.75437
-13.7604
0.501932
2.61249
-14.8901
14.7201
-1.4672
2.7073
-1.05673
-4.33701
-2.60665
33.0826
-0.371849
-43.3864
-1.53892
14.842
-35.864
7.81004
10.0762
1.81389
12.6911
-27.9834
-2.10572
-21.8965
-29.1056
-21.3936
-14.011
-47.3877
-16.9959
7.89257
-30.7602
2.01385
-5.60233
2.30942
-23.5265
8.6977
11.1246
-21.1727
-9.09611
-12.6577
-8.31664
3.30428
-4.55997
28.1111
0.246334
22.3862
-19.1283
-18.2845
-8.30619
-38.2347
31.3575
14.9497
-31.5739
-0.00151219
-24.0871
1.50679
-0.143065
-94.9955
-21.2443
28.0449
-12.4847
-18.7847
8.97242
-3.06849
1.58375
15.6807
-0.389635
-51.6667
-4.93278
-9.20852
-18.3002
-15.1951
2.54545
20.6623
-12.3369
20.8208
9.09972
-8.57891
-2.24285
28.6701
0.649033
-0.366971
45.9227
-2.58705
1.18476
-6.0398
-38.5002
15.4331
13.448
-14.6519
-2.4715
3.90778
-0.522177
-9.66515
-6.61456
2.48923
3.34404
0.259584
-1.43342
3.08715
-0.9252
63.4374
-0.240279
-0.489605
-4.04379
20.8546
-55.0715
-1.69251
19.5696
-52.1689
12.2397
-3.71745
-49.6856
0.73194
-0.134474
9.54372
-16.7603
-0.0539004
-1.1941
-2.01662
0.0425983
-0.168093
11.4992
2.42417
-12.1922
-1.50343
5.18248
-1.08659
0.822105
1.7653
-0.807406
13.3607
15.6311
-9.63711
25.6829
-65.7201
-17.6096
4.01179
5.79184
13.6719
6.32479
-0.249754
37.3929
-12.5656
2.74525
-6.82101
1.51899
-12.9661
-0.542792
-2.50187
-35.0065
11.9873
-4.74016
-2.79042
-11.6669
56.7427
-10.07
50.3695
11.258
1.50378
-2.71983
7.98108
-45.8305
-5.61611
44.8936
-4.93646
15.4373
2.22426
-1.25672
11.3014
5.19354
14.9049
1.48901
8.24707
-5.58892
-33.7974
-1.28376
4.46032
-3.47195
5.25345
-0.800082
1.63656
5.72541
40.4148
-2.42504
-16.8392
2.66852
-33.2665
-5.17425
-3.28725
0.532426
-0.774035
1.57051
0.971236
-24.1771
0.0251865
-13.9267
7.31745
36.8479
6.45451
30.6483
17.6758
-0.711145
7.78047
-1.97034
-0.310227
-27.8427
-34.2707
43.7662
0.0459098
1.82273
29.1389
-1.34563
-2.69614
-39.7345
0.703491
-29.5338
-35.7712
45.9591
9.12299
19.6761
-0.59281
4.77529
19.534
-16.5504
11.0717
-2.44019
-8.13186
0.644463
-0.0701504
-4.17738
-0.316795
17.0739
-29.1742
-3.35245
-16.6154
-17.1328
-15.1242
-41.5232
-0.30307
0.830053
1.98553
-0.436939
-42.6433
-13.1388
19.2494
-0.186543
42.4004
14.543
-0.838364
3.83529
-0.474224
-11.8895
-1.92078
9.28169
-0.256261
-36.8868
-64.8088
48.1781
46.6454
5.68375
-0.569875
-1.31486
26.7192
-127.078
10.6642
0.248192
10.7474
1.81329
-14.2749
12.7031
-34.7892
16.3176
7.69588
1.00309
2.15661
-7.44442
7.25161
-21.2097
0.639966
20.8183
-23.4322
-23.901
11.6377
-1.76569
10.3292
-2.89329
-2.86609
62.1192
-28.1191
-31.6363
6.85261
-1.03003
-16.297
32.994
-32.0698
14.8982
-3.27455
-35.1743
-12.0285
-6.56906
-6.705
5.40283
-49.7077
13.2436
13.5179
1.98004
-0.148709
28.6595
0.398387
0.155083
-39.6907
-9.02686
-0.385694
-84.5491
-21.6582
2.04831
-0.00467687
5.70449
-0.138613
3.30772
12.1157
2.47052
-28.0532
1.08885
-1.80986
-15.5187
4.61237
34.9416
-24.3028
14.2555
-36.4099
-0.34712
13.893
1.38464
-2.17478
48.145
-42.3899
-32.0441
-19.7253
-1.19077
15.6729
-72.4493
0.952974
-127.219
-0.175235
8.50656
-4.9454
2.27715
-1.15604
10.3032
-16.6243
9.99757
14.691
-2.4375
-44.4865
-1.75658
-0.450286
-0.0417964
0.819879
7.98286
-6.0454
-0.0838362
-0.791926
0.777142
-1.8366
29.5007
-78.4659
-3.4693
-2.20401
-0.149262
22.9273
-17.2517
-0.601047
37.9064
-25.1948
61.2638
-5.95082
56.4055
-86.0666
-28.0127
29.0225
20.4088
0.316905
33.1108
-27.2541
-9.1876
54.7069
-9.49888
11.4549
-16.1636
-5.09072
-5.75803
-42.0482
10.1672
-4.85305
5.70381
-14.4172
-20.637
2.95674
-3.73268
-3.50936
4.47492
0.483478
0.697263
30.5569
26.3123
17.1876
12.6075
-4.96388
0.57706
-0.404797
-35.6156
-1.73438
7.65633
8.12152
-1.84514
11.1521
-12.934
61.3624
-0.878342
2.22794
0.574038
11.0745
-2.42103
-7.02194
0.739624
36.0618
-0.0866682
-28.6058
2.0704
1.83545
-41.8894
-16.0448
13.0483
-0.946886
1.54034
-55.7473
-15.2951
0.734723
7.98104
8.3002
-0.962407
-36.4361
-56.7452
-1.98999
16.4655
-2.883
4.4091
-0.0782443
-21.1148
-30.648
37.5507
-1.59335
-4.37308
26.5175
-33.1789
0.767828
1.87154
-67.4956
-35.7221
-0.608558
6.26704
31.4752
9.17472
2.32859
-1.76292
-34.3711
-45.267
-0.911585
31.9796
-0.197135
7.13563
-11.2022
-0.45464
-4.62235
-32.9212
-7.21561
9.70714
-6.70364
-3.9782
15.6492
12.5222
-11.4325
14.5361
-0.160432
-9.28769
31.4294
-0.15788
0.336614
1.08339
-14.8597
-1.35972
0.498594
0.478908
-27.4184
-38.1159
-2.5039
7.55428
0.301333
-0.522636
9.60692
-14.7533
18.5428
-78.0345
-12.0693
34.1819
15.3373
-0.244269
-0.208555
42.1863
0.11198
-14.3632
11.691
-29.4372
1.33419
1.48997
-0.358346
-7.87787
4.59096
0.397019
48.3553
-3.08097
-17.3267
5.52503
0.375638
7.50909
10.8272
-40.5626
-12.0444
2.87285
52.3821
2.52791
18.7223
-1.96902
-14.116
13.7223
11.5754
-18.5345
5.30145
15.9177
-0.206633
-12.9139
-16.216
-5.09971
2.48441
-2.16739
-42.1716
-30.1685
-0.693942
-2.98945
55.9993
11.6821
-23.8338
-5.20114
-29.9947
-73.3472
-3.10949
19.7695
1.23212
-23.7269
7.38498
9.86707
-0.092852
-8.04979
-10.0465
4.83451
-1.42418
12.2565
1.484
-22.6046
-1.52966
3.47018
12.815
-4.45646
4.19735
-1.20615
2.48098
40.2236
8.91768
-28.5967
11.3374
-0.999358
-15.1799
7.88273
-5.01784
-31.9548
-12.2202
10.338
-0.606821
18.5968
-43.6562
9.7548
-34.1192
-69.4603
-10.2002
49.9475
1.64838
2.57708
18.5786
8.23745
-44.821
14.8026
-0.884657
6.32422
-3.96421
1.75318
-10.739
-5.8215
41.2933
14.7974
9.48424
-6.42061
-71.5542
-3.64961
-8.1016
-0.892418
0.10249
49.5529
-3.58565
9.03747
-6.25573
16.5548
-2.29834
-15.3808
14.1809
9.24138
-4.51018
-0.96305
-0.845337
58.6059
-9.27898
7.21397
-0.735394
9.62228
-7.87408
42.4681
-3.17447
-3.83026
-18.2681
49.0414
12.0804
-1.98938
-8.01721
-1.6984
-4.15016
-2.68464
-32.1483
0.690336
8.35365
6.82504
-0.541952
-0.0869881
44.5736
14.9803
39.8111
20.3629
20.4875
-27.562
-9.81576
-1.22569
-1.2064
-52.229
12.5415
-30.3352
4.67329
-28.0766
-17.9716
2.02178
-1.0738
-63.21
2.44955
-9.9262
-31.028
-16.4273
0.300156
-0.623466
-36.2048
-7.82912
-0.365905
10.5205
-8.55586
-0.319622
-14.8167
-14.9846
-9.15152
-12.3064
31.0254
-2.05723
-1.5954
-3.50336
14.2752
-41.8001
-0.0243882
-3.92774
0.877329
-1.30199
6.35103
2.18041
39.3161
-31.5016
13.4464
-55.055
-0.639795
-2.07837
-3.04004
-3.20937
-30.7865
-2.26935
-20.3109
-32.5215
-37.0367
-18.1627
-0.251568
-2.32249
-16.5651
-44.3248
-5.51303
-42.1683
-0.447251
12.2348
13.2907
8.38573
19.6053
-31.385
-45.7998
-21.3654
-2.10145
47.234
-10.7213
-22.1254
-1.25489
-35.4292
24.4621
17.7148
6.60073
14.1113
0.863995
-2.30897
10.4838
-4.43151
11.1367
-45.1969
-9.81247
-12.9647
-5.2926
-3.79007
-0.578522
-36.2424
8.67305
2.08302
-17.2612
-7.90136
32.7537
2.50674
-6.10519
-9.19351
1.79349
25.0125
-10.473
2.25402
-6.6783
0.408947
-4.78622
-0.942458
-1.14916
33.9179
-3.13667
-27.2725
8.10316
2.33991
22.5558
8.21214
-4.24702
6.40651
-36.6302
-0.496934
-1.63735
-0.0348373
-10.7181
14.8156
-1.6387
14.1818
-1.58105
0.295941
6.8699
0.956661
8.20519
7.38815
-32.712
-61.8114
8.64646
22.9571
7.54441
-17.4852
-0.29438
-54.5322
4.41796
-0.702085
4.54352
-0.972908
14.4367
19.7611
21.5851
0.923642
1.3007
8.44515
-18.2377
-1.01041
-49.2147
-42.3399
-5.70569
-6.14682
3.39105
8.22267
5.49864
-15.3877
-0.211821
-0.8406
-1.43304
9.47579
-0.964651
-54.1643
1.76029
-1.10615
-1.61655
0.633697
9.49908
11.3009
10.2232
2.02667
-38.7195
-30.4513
-3.10639
-93.4412
22.4068
-6.75291
-6.05296
9.12787
-0.983971
9.79255
21.3119
-4.06152
-26.2095
10.2639
8.28361
-44.416
-6.41364
9.43354
-0.381022
0.507785
-3.76523
11.3293
-6.79575
19.9626
-1.01325
0.97035
-9.43323
-18.6885
27.9904
33.2517
-106.347
-13.8009
-12.8548
46.0928
11.2394
-0.104446
25.7908
-89.2417
32.2537
-8.58381
28.3797
-2.06288
-0.0282021
4.48241
-42.6215
-0.641234
17.3841
-71.9541
6.09495
-8.67175
-2.70023
1.16088
-0.29388
-44.2024
-1.07589
-5.08363
-0.0268816
-56.4934
-9.66377
-1.32762
-0.464983
-2.27044
-36.718
-1.92574
19.488
0.0668359
-3.71123
-16.514
20.9173
-12.2443
11.051
6.11575
5.04192
6.62272
-17.8028
14.9408
-0.328077
-41.8302
19.7674
-3.29747
2.37267
-1.14107
10.7442
-10.5476
-63.141
-3.78844
-1.05905
-44.8979
-7.40559
-107.027
-2.37137
-24.0869
34.0971
7.27491
-3.91155
-2.07019
16.4858
-21.8954
-0.780773
-2.38444
-7.29696
-5.20305
0.128607
10.4463
10.0216
-0.866865
-2.89578
-0.0743308
0.534951
35.342
-41.9105
-38.6715
-7.01282
-12.0442
-40.8492
-1.10216
-73.0149
-15.5495
0.886496
-35.0962
-32.3343
-1.24255
-2.14292
9.74508
-7.21968
10.308
-23.5105
-18.7158
-42.2128
1.64962
0.0928678
14.4705
7.49286
1.29759
47.9634
-2.17085
6.36652
-3.42297
-0.316073
9.2107
19.1697
2.18783
-13.2768
-37.231
-19.758
-2.26854
20.9022
-0.392555
-0.0262089
6.99106
0.705742
9.96748
-13.6873
1.09252
1.63575
11.9278
0.252929
-1.4173
-1.36219
-14.5974
-12.842
-5.77336
-1.53919
-0.167647
0.910132
-90.2497
-3.12112
-16.9208
-44.7838
-0.595736
1.73014
10.13
-5.12242
0.0509893
22.5689
-0.298535
10.9187
-0.380202
-0.126903
-7.24791
-9.59429
-8.20315
-13.4423
-9.95922
-1.64356
1.31408
-7.80308
0.74857
16.0054
-0.207132
-1.25912
-31.2177
-38.1496
-0.169057
-6.12081
-10.4215
-7.41718
26.411
38.6197
-42.6412
-37.7394
-4.14618
-2.54011
-1.99981
6.50539
-1.58366
-4.4143
-13.3403
-11.2483
-9.03229
15.2407
-28.237
-11.4175
-46.3583
2.29635
8.62785
17.5168
-91.8494
-0.122301
-7.88408
-0.0888413
0.267754
-13.9981
9.87456
1.21639
0.774054
-12.9767
9.82874
-9.23877
-1.04606
-4.16425
8.31818
-1.68573
28.5094
9.96561
-34.7344
3.47403
36.5953
1.61258
-1.69308
-2.27621
-40.3108
29.2821
7.46951
8.37367
-17.4369
10.438
35.778
3.34166
12.6558
0.914939
-35.642
22.5102
11.4329
1.45978
-15.4365
-21.3292
1.81125
0.518974
8.95189
-42.59
-0.279226
-71.0205
0.225687
-0.191594
4.65857
9.70208
-7.1434
-2.44967
9.16826
-8.87216
-1.74969
8.82101
-29.742
-0.684412
-25.2954
2.97581
-1.91882
-26.6952
23.4986
13.0123
-8.33985
43.3886
-1.34396
-35.2066
1.00678
-39.4577
-0.0417865
12.9986
0.14607
-1.56777
13.3978
-1.05019
10.0905
2.30307
-7.60238
-34.1802
-1.04507
-0.662187
39.9705
-3.72122
-26.871
-3.4515
0.258347
11.8862
9.263
-21.4639
-15.4047
-1.98073
44.3677
-49.9014
15.6197
-8.30742
-3.78223
6.61331
-9.51411
-1.80075
22.9973
1.31746
-0.518251
10.1712
6.94998
0.130296
4.68816
9.12586
-36.826
-0.0881175
-1.51079
-22.0972
-35.2915
3.25128
-1.33263
-33.0295
-1.49973
-34.5474
17.9814
-13.3947
-21.0887
-11.334
5.40465
10.5527
4.82776
0.143378
8.08549
-10.404
-2.21652
5.90745
-0.604593
-1.06152
13.3319
-39.7615
-62.1514
20.4989
0.334909
3.38736
16.4412
-5.46765
-22.5585
-8.04216
-28.5302
8.88836
-0.174948
14.4415
61.2747
-13.9439
-11.7362
0.542491
11.1704
4.65326
-0.029399
-0.957284
2.41382
-2.89781
-36.2095
-0.573505
2.34351
25.0871
24.9652
3.10594
3.73305
-21.298
9.9415
53.9513
-30.5162
-13.9291
-2.17778
-30.2993
0.155949
10.6848
0.71012
30.8745
-24.9404
8.36294
-18.4713
10.8372
-30.569
-3.69775
36.6667
-43.9669
4.5441
-52.6463
-17.6874
-5.12085
-1.55778
3.36969
3.8407
-25.7961
-17.9493
11.091
-0.397092
-12.5207
-13.3334
2.80494
-43.9883
9.22078
29.5576
-25.8394
-8.63572
1.71857
9.44261
58.5636
-3.64452
19.6499
9.4301
35.9401
12.1111
-32.1785
-29.3516
0.314421
-1.66874
0.473537
-0.353513
10.4113
-0.32755
-53.8986
-0.687001
-0.0101162
1.42288
0.622364
-1.81566
-33.4744
-0.800674
1.45631
-8.08641
-1.79292
5.84394
-0.00557343
10.8769
1.61742
0.491078
8.91811
1.98918
-2.78614
-1.30688
-0.430285
-8.9205
-4.23294
-4.5936
-22.2282
-0.627366
-12.9108
-18.5208
-63.3208
-16.8225
4.42529
-1.51718
-7.5784
-34.7327
12.6029
0.908657
5.46642
43.3246
-0.0985665
19.0521
-6.90155
1.35343
8.13195
-5.65878
-23.9718
23.6184
-18.7855
-12.6153
13.4051
0.480304
-33.506
11.8436
-2.93167
-0.633782
10.5824
-4.34727
-1.6213
-3.18164
-44.6458
-19.0593
-56.0045