/*--------------------------------*- C++ -*----------------------------------*\
  =========                 |
  \\      /  F ield         | OpenFOAM: The Open Source CFD Toolbox
   \\    /   O peration     | Website:  https://openfoam.org
    \\  /    A nd           | Version:  7
     \\/     M anipulation  |
\*---------------------------------------------------------------------------*/
FoamFile
{
    version     2.0;
    format      ascii;
    class       surfaceScalarField;
    location    "50";
    object      phi;
}
// * * * * * * * * * * * * * * * * * * * * * * * * * * * * * * * * * * * * * //

dimensions      [0 3 -1 0 0 0 0];

internalField   nonuniform List<scalar> 
22555
(
0.00786224
-0.0523227
0.0733667
-0.0289045
0.00149345
0.00614817
-0.00217374
-0.00546615
-0.0232363
-0.00338414
0.0236202
0.00300265
0.00624832
-0.000516093
-0.00585591
0.00012562
0.0557137
-0.149326
0.0316669
0.0619453
0.00582041
0.00136362
-0.00568939
0.0715056
0.0358847
-0.0750125
-0.0323786
0.0587754
-0.0461868
-0.0325358
0.0199477
0.0226375
-0.111849
0.0914018
-0.00219066
-0.0105518
-0.0181229
0.0212753
0.00739933
0.0513472
-0.0752277
0.0830514
-0.0591719
-0.028838
0.000594826
-0.00711628
0.0353606
0.00537278
-0.0497138
0.0107598
0.0335804
-0.172187
0.13849
0.0298781
0.00382045
-0.102764
-0.021597
0.0934139
0.0309442
0.00100709
0.00168241
-0.00762591
0.00494088
0.0659452
-0.0537392
-0.0322756
0.0200688
-0.0856094
0.0561164
0.0556779
-0.0261847
-0.0270441
0.0200748
0.0688662
-0.0618966
-0.0311473
-0.0723711
0.0328585
0.0706605
0.00196704
-0.0100422
0.0345417
-0.0264513
-0.122013
0.145278
0.122343
-0.145607
-0.00790064
0.00777728
0.0244473
-0.0243238
-0.0090703
0.00734131
-0.00237134
0.00409889
-0.0453667
-0.0829637
0.015738
0.112592
0.0510179
0.0646929
-0.0492511
-0.0664601
-0.0031646
0.0135621
0.000895678
-0.0112835
-0.0784674
0.0160033
0.0144128
0.0480511
-0.0641885
0.0626315
0.0892177
-0.0876633
-0.050946
-0.0829255
0.0609404
0.0729327
-0.0683573
0.0599479
-0.00371794
0.0121278
0.115541
-0.0972647
0.0846466
-0.102926
-0.0851767
-0.0769782
0.0857385
0.0764149
0.00404514
0.0835552
-0.0808059
-0.00679384
0.00530048
-0.00438838
-0.00568837
0.00477719
0.182118
-0.0481115
-0.149186
0.0151791
0.107494
-0.136202
-0.0713432
0.100049
0.0631695
-0.0314478
-0.13083
0.0991082
0.0781178
-0.0401129
-0.100073
0.0620646
-0.0443153
0.0573487
0.0228147
-0.0358476
-0.0453259
-0.0401486
0.0498352
0.0356398
0.116087
-0.112869
-0.00569446
0.00247571
-0.098899
0.137779
-0.0408026
0.00192338
-0.00668397
-0.0194045
0.0177791
0.00831055
0.068834
-0.05962
0.0486218
-0.0578349
-0.0465474
-0.0444284
0.0664603
0.0245153
0.0196103
-0.100264
0.0571956
0.0234587
0.0131623
-0.0323518
0.0345572
-0.0153681
-0.00804504
0.00927158
-0.0015622
0.000337966
0.0395789
0.171155
-0.116593
-0.0941414
-0.00565592
-0.0186149
0.0169404
0.00733152
0.0822758
0.039609
-0.0728901
-0.0489957
-0.00655253
0.00699939
0.0181206
-0.0185673
-0.0578352
0.00102559
0.0606301
-0.00382435
0.0298102
-0.0623285
0.0540136
-0.0214957
0.0605445
0.0515235
-0.0596062
-0.0524615
-0.0133679
0.0142953
0.0208599
-0.0217862
-0.000863824
0.00474958
-0.00591603
0.00203265
0.154673
-0.091692
-0.0234023
0.0266514
-0.0120853
0.00875286
-0.023318
-0.0126761
0.0478063
-0.0302258
-0.00490358
0.0516245
0.0475055
-0.052768
-0.046365
0.175398
-0.0117293
-0.0260778
-0.137592
-0.00359176
-0.00161425
-0.0012177
0.006432
0.0562821
0.0569357
-0.0605695
-0.0526482
-0.164424
0.107164
-0.00347548
0.0607356
-0.0309757
0.0924227
-0.0515595
-0.00988901
0.000601792
0.00879982
0.000286145
-0.00968656
0.000952782
-0.00493907
-0.0236297
0.0276168
0.0301079
-0.00990355
-0.0256614
0.00546551
0.0585577
0.0908707
-0.0436433
-0.105785
0.129119
-0.0456011
-0.0801861
-0.00333228
0.0698262
-0.111726
0.10143
-0.0595307
0.0318865
-0.0295057
0.0960939
-0.0984755
0.0236067
0.04963
-0.0101959
-0.0630416
-0.0534873
0.144703
-0.119348
0.0281299
-0.002771
0.00469057
-0.00284026
0.000919568
-0.0675546
0.0118731
0.0565166
-0.000835834
0.0410546
0.14682
-0.123418
-0.0644558
-0.0370744
0.0208722
-0.00230806
0.0185096
-0.00635095
-0.00359314
0.00477324
0.00517122
-0.00254854
0.0145465
-0.0138174
0.00182122
-0.00518925
0.00572614
-0.00053442
0.0190842
-0.0224035
-0.0263122
0.0296324
-0.0278959
0.0173218
-0.0269275
0.0375014
-0.0319245
0.010893
-0.000299258
0.0213308
0.132789
-0.141176
-0.00747207
0.144034
-0.0142286
-0.0837482
-0.0460581
0.0228926
0.0351875
-0.0198057
-0.0382719
-0.0237962
-0.0410121
0.0349377
0.0298686
0.0973962
-0.0574069
0.0990089
-0.138999
-0.0371266
0.0410928
-0.0445695
0.0406023
-0.00428621
0.00146276
-0.000188332
0.00301849
-0.0224495
-0.0269264
0.0344204
0.0149567
-0.116819
0.00118992
0.0637828
0.0518437
-0.0316349
-0.0431914
0.0647383
0.0100872
0.0465994
0.0546704
-0.0545567
-0.0467143
0.0248517
-0.0251358
0.0263364
-0.0260525
-0.00236204
-0.0154306
0.00180641
0.0159995
0.0573719
-0.105957
-0.0746213
0.123207
-0.118834
0.0384215
0.0942982
-0.0138839
0.0273104
0.0275472
-0.0262149
-0.0286414
-0.00737464
-0.0224421
-0.0725988
0.102413
-0.141093
0.00393113
-0.0148929
0.152053
0.0419968
-0.0477415
-0.0683182
0.0740631
-0.00662136
0.000821494
-0.000375114
0.00617698
-0.00440409
-0.00300676
0.00652832
0.000866079
-0.0852805
-0.0427871
0.0854107
0.0426589
0.122377
-0.103917
-0.00645013
-0.0120111
-0.053612
0.000996784
-0.00343472
0.0560492
-0.00406742
-0.0698456
-0.000682134
0.0745942
0.0079905
-0.0576338
0.00568496
0.0439599
0.029447
-0.0368181
-0.00614901
0.0135202
0.0879497
0.0492362
-0.0488478
-0.0883369
0.0256047
-0.00550084
-0.000570209
-0.0195361
-0.00911238
0.0121748
-0.100396
0.0973337
-0.0421391
-0.0124849
0.0117801
0.0428463
0.102514
-0.0499264
-0.104761
0.0521709
0.0400379
-0.0792913
-0.132934
0.0158793
0.0176763
-0.0157985
-0.0177582
0.0113538
-0.0138667
-0.00956235
0.0120744
-0.0554895
0.0205701
0.0512886
-0.0163658
-0.0439442
-0.0681455
0.0432719
0.0688171
0.0836574
-0.105493
-0.00638761
0.0282223
0.0240276
-0.0355704
0.00854989
0.00299346
0.0284159
0.0151058
-0.108986
0.0654666
0.11532
0.0249588
-0.0953008
-0.044979
0.0357693
-0.0576529
-0.0316413
0.0535231
0.0229247
-0.0490231
0.0463949
-0.0202958
-0.0351455
-0.00177414
-0.000290675
0.0372105
0.0462436
0.0612707
-0.0493563
-0.0581586
0.0393632
0.0351676
-0.0537353
-0.0207948
-0.00979848
0.000605887
0.0106437
-0.00144468
0.0612984
-0.0417305
-0.00743125
-0.0121374
0.0641644
-0.0471778
-0.00666931
-0.0103192
0.112115
-0.105292
0.0576092
-0.0644336
-0.0645012
-0.0496522
0.0392138
0.0749403
0.0285174
-0.0431093
0.0352127
-0.0206223
-0.0018552
0.00573534
0.00526893
-0.009147
0.0275608
-0.0217586
-0.091084
-0.0856761
-0.00321298
-0.0047325
0.0936186
-0.00415833
0.077886
-0.127216
0.036773
-0.00568904
-0.0290995
0.0059523
0.0265598
-0.0355285
0.00301498
0.0173658
0.112937
-0.0905264
-0.039776
0.0225117
-0.0636898
0.0547805
-0.0136019
0.00575398
0.00398907
-0.00561133
-0.0041304
-0.0221386
0.0482908
-0.0589292
0.0327791
-0.0259978
-0.0883347
0.0872909
0.0270424
0.0367247
-0.0187369
0.00666918
-0.0246594
0.0864549
-0.0867694
0.050355
-0.0500406
-0.0367338
0.00319715
0.0224008
0.0111367
0.0846342
0.0139149
-0.0305881
-0.0679616
0.00175585
0.00604281
-0.0040011
-0.00379418
0.0485119
-0.0700901
-0.0394994
0.0610759
-0.127627
-0.023375
-0.00649659
0.1575
0.0348145
-0.0966222
0.106521
-0.0447114
0.0441111
-0.0489743
-0.110251
0.115115
0.00790365
-0.0109055
0.0386307
-0.0356279
-0.084752
0.0643806
-0.0476661
0.0680382
-0.117988
0.0960767
0.0270968
-0.00518678
0.00223123
-0.134391
-0.00893515
-0.00735751
0.0126402
0.0363879
-0.0416685
0.0258541
0.142706
-0.0530213
-0.00653622
0.00762627
0.00185623
-0.00294474
0.0541552
-0.0400579
0.0451554
-0.0592564
-0.0364
0.0203705
-0.0496419
0.0656704
0.00596867
-0.00523782
-0.00231542
0.00158872
0.124139
0.0665022
0.00877692
-0.199419
-0.148335
0.0145631
0.12914
0.00463181
-0.00775519
0.0146939
-0.0100978
-0.0368833
-0.138529
0.107032
0.0683816
-0.018228
0.0321329
0.0219651
-0.0358722
0.000547074
0.0502332
-0.058588
0.00780926
-0.0308557
0.0650103
-0.0775387
0.0433846
-0.00327546
0.0395408
-0.0119261
-0.0243389
0.0264312
-0.0351826
0.0438979
-0.0351452
-0.0182653
0.0142394
0.0119584
-0.00793518
-0.00476107
0.00183441
0.033551
-0.0306265
-0.0851632
-0.0382393
0.00783161
0.11557
0.0287443
-0.0159871
0.00632742
-0.0310057
0.0705013
-0.0700964
0.0306015
0.0394757
-0.0182385
-0.0267605
0.0055246
-0.0169839
-0.0298462
0.050053
-0.00322344
0.0243237
-0.00243859
-0.0264856
0.00460743
-0.00929237
0.00819964
0.0380532
-0.0369609
-0.00918967
0.0316129
-0.00696937
-0.0154526
-0.000376104
-0.00971229
-0.025057
-0.0255061
-0.0291787
0.0237667
0.0309185
-0.00541669
0.0075012
-0.00891041
0.00682753
0.127355
-0.0334898
-0.140316
0.0464506
-0.131941
0.0205
0.086951
0.0244907
0.0350296
-0.0390952
-0.0211744
0.025242
-0.111347
0.106099
-0.0154993
0.0207475
0.088837
-0.0433373
-0.0357333
-0.00976593
0.0151368
-0.0212799
-0.0814189
0.0875618
0.00113364
0.0104673
-0.0109971
0.0029594
0.0718423
0.0135416
-0.0883416
-0.0178991
0.0404264
-0.0364649
0.0139357
-0.0398179
0.0609582
0.0220783
-0.0432203
0.0525673
0.0155794
-0.0927571
0.0246139
-0.00599928
-0.0409785
-0.0066337
-0.00172691
0.0718796
-0.00589154
-0.0642593
0.0319722
-0.0517212
0.000573993
0.0191743
0.0120773
0.0865391
-0.0878845
-0.0107319
-0.0931602
-0.0717026
0.114246
0.0506164
-0.049815
-0.107327
0.0585559
0.0985862
-0.010725
0.0999344
0.00208926
-0.0912988
0.0499769
-0.0635376
0.0616393
-0.0480775
0.000214282
-0.0493441
0.0292959
0.019835
0.0105033
0.0428371
-0.03581
-0.0175324
-0.0827097
0.0526806
-0.0964416
0.12647
0.0835902
0.0539562
-0.118285
-0.0192617
-0.058359
-0.0721483
0.0689663
0.0615428
-0.0687963
-0.0865552
0.0554037
0.0999513
0.0690697
0.0141712
-0.0336368
-0.0496065
-0.0606862
0.0844685
0.0611
-0.0848841
0.0333146
0.0684991
-0.0328788
-0.0689337
0.115865
-0.0575684
-0.0857345
0.0274371
-0.00856511
0.00670468
0.00287178
-0.0187184
0.0307633
-0.0290282
-0.0403132
0.0546212
0.0336727
-0.0479801
0.000914158
-0.00586888
0.00619091
-0.00123439
-0.00449809
0.00302986
0.00146853
-0.0578616
-0.0537211
0.0287253
-0.0326743
0.0252741
-0.0213243
0.00289659
0.000214105
-0.00311674
0.124886
0.00214552
-0.0427679
-0.0842647
-0.0359072
0.0459234
0.0586758
-0.0686909
0.0450986
-0.045516
0.0441033
-0.0436851
0.00534623
0.0612292
-0.0528027
-0.0137714
-0.0628954
0.0503394
0.0423656
-0.0450878
0.0377747
0.0247437
-0.0174324
0.0405592
0.0745214
-0.104835
-0.0102454
-0.0288227
0.0113766
-0.0151425
0.0325837
-0.00661159
0.0063313
0.000244086
3.6884e-05
-0.0607165
0.039724
0.052969
-0.0319766
-0.0469589
0.0838676
0.0203476
-0.0572568
0.00633101
0.00490194
0.0553866
-0.0125059
0.00525993
-0.0481405
-0.0593666
0.0780719
-0.115971
-0.0142236
0.028881
-0.0310099
0.0163523
0.0234654
-0.026245
-0.0190878
0.0218682
-0.103765
0.134153
0.0277594
-0.0581489
-0.0293503
-0.0203401
0.0272878
0.0372707
0.0746143
-0.0905108
-0.0213746
-0.0730315
0.0813507
-0.034316
-0.0265965
0.0363829
-0.0420391
0.0322528
-0.0425508
-0.0405065
0.0935446
-0.0104871
-0.0192196
0.0361191
0.0225762
-0.0600087
-0.0404009
0.0450635
0.0553452
-0.0829915
-0.135734
0.165408
0.0533179
-0.0331598
0.0129264
0.0404293
-0.0201946
0.0816396
-0.0954533
0.0559427
-0.042129
0.00641789
0.0450523
-0.0161169
-0.0353534
-0.0641965
0.0219837
0.0718268
-0.0296125
-0.0278841
-0.0131664
0.0175946
0.0234543
0.0850722
0.0477067
-0.0709213
-0.061859
0.00787466
0.0211805
-0.0590801
0.0300253
0.0757677
-0.0740728
5.06981e-05
-0.0017436
-0.0609534
0.0478953
-0.00628954
0.0193479
-0.0134848
0.0799268
0.0656458
-0.132089
-0.0494206
-0.00613799
0.0116341
0.0439233
-0.0147276
-0.0850806
0.0790944
0.020716
0.00450731
-0.0212563
0.014002
0.00274763
0.0334187
-0.061674
0.0403886
-0.0121338
0.0397059
0.0635315
-0.0654945
-0.0377427
-0.0109595
0.0228445
0.022027
-0.03391
-0.000832768
-0.00761006
0.00844509
-0.0613572
0.0648873
-0.0256017
0.0220709
-0.000829717
-0.0011259
0.00196045
-0.0551319
0.0851174
-0.0404382
0.0104524
-0.0179309
0.0139525
-0.0353678
0.0393484
-0.00791616
-0.106081
0.0459172
0.0680806
-0.0135321
0.0998781
-0.00564597
-0.080702
0.017063
0.00822468
0.00482964
-0.0714824
-0.0125377
0.0638105
0.0202113
-0.0646401
0.096047
-0.096593
0.0651862
0.0461389
-0.0496953
-0.0434947
0.0470512
0.0411837
-0.0744268
0.13719
-0.103947
-0.0639148
-0.0649546
-0.0045025
0.133372
-0.0255868
-0.0421888
0.0375307
0.0302433
0.0181176
0.0684645
-0.0675482
-0.0190342
0.0169056
0.0581176
0.00441284
-0.079436
0.00230571
-0.0239018
-0.0242424
0.0458343
0.134986
-0.113525
0.0190979
0.0216725
0.00689283
-0.00423564
0.000321456
0.00863282
-0.00895314
0.0858406
0.0707726
-0.146705
-0.00990804
0.000876928
-0.0629264
0.0126274
-0.00321496
0.00170463
-0.0339449
0.0354529
-0.0782797
0.0720733
-0.0485219
0.0547239
-0.0013146
0.00187365
-0.0119326
0.011381
-0.113256
0.10719
-0.0437529
-0.0119051
0.018931
0.0825695
-0.0847755
-0.0497467
0.0519533
0.0352102
-0.0186539
-0.0274633
0.0108982
-0.106591
0.109685
0.0280267
0.00739298
-0.0419787
0.0401377
-0.00555297
-0.00381667
-0.00342305
0.0064811
0.000759353
0.0670835
0.0801041
-0.0393683
-0.107821
0.0401513
-0.024695
-0.0462233
0.0307663
-0.00408862
0.00940993
-1.96057e-05
0.0604622
-0.0530909
-0.0543302
0.164773
-0.152023
0.000860987
-0.0136124
0.0822554
0.0460168
-0.0725166
-0.0557544
0.0140343
0.00192877
-0.0118543
-0.00410822
-0.0300002
0.129516
0.0551574
0.125208
0.0158439
0.0012696
0.0655385
-0.0537047
-0.0908869
0.0790525
-0.0292611
0.0226896
0.00802848
-0.0014576
-0.120381
0.0403781
0.121058
0.0182918
0.0150294
-0.0162326
-0.0170914
0.00301504
-0.0436887
0.0352368
0.00543637
-0.0288768
-0.127064
0.0160849
0.139856
-0.0340866
-0.00145648
-0.0332872
0.0688284
-0.0464959
0.00662888
0.0106087
0.0292588
-0.0536109
0.0527277
0.0387733
-0.0378918
0.0046479
-0.0317406
-0.0238527
0.0509445
0.0401171
0.0109054
-0.0491645
-0.00185551
-0.0488842
0.0167929
0.0691774
-0.0370837
-0.00193645
-0.00447386
-0.000553958
0.006968
0.0875792
-0.114996
-0.0577601
0.0918712
0.0237682
-0.110966
-0.00467289
0.0688792
-0.0418269
0.0255164
0.0240077
-0.0406498
-0.0130908
0.0297277
-0.0710507
0.00683744
0.0104651
0.0537492
-0.0384875
-0.0116513
0.0254707
0.024669
-0.0258586
0.0349913
0.0195935
-0.0895741
0.114691
-0.0395102
0.0143914
0.0439409
-0.0476492
0.0126209
-0.00891225
0.0567063
-0.104692
-7.76216e-05
0.0241998
0.00797891
-0.0321006
0.0497044
0.00623745
-0.0467556
-0.00918181
-0.0607243
0.0120688
0.0603248
-0.0116694
-0.0474706
0.0388523
0.032225
-0.0430568
0.0167427
0.158831
-0.132517
-0.00399896
-0.000528198
0.0025652
0.00196808
0.0547021
0.0292804
-0.0536567
-0.0303239
0.0459693
-0.0369171
-0.0195747
0.0105234
-0.00517514
0.00264078
-0.000683054
0.00322673
0.0281179
-0.0204935
0.0439982
0.0203071
0.0450916
-0.0745276
0.00912701
0.0333229
-0.0343006
-0.106989
0.107967
0.00335059
0.00382467
-0.134803
-0.0197794
0.128132
-0.069229
-0.0391237
0.0936013
-0.077513
0.0844658
-0.100554
0.0723762
-0.0397839
-0.0680655
0.035472
0.0144026
0.022891
-0.0208097
-0.0164835
0.119769
-0.0630103
0.0919335
-0.0105946
-0.0158465
0.00753077
0.0189105
-0.0691897
-0.00874035
0.0136324
0.0642964
0.0596303
-0.0109558
-0.0405883
-0.00808398
0.0271179
-0.0264167
0.0157361
-0.0164361
-0.0324554
-0.0494105
0.0278091
0.0540568
-0.0382681
0.044354
-0.0348251
0.0287427
0.00507046
-0.00700755
-0.0219678
0.0239057
0.0138438
0.0427819
0.0064662
-0.06309
0.0396202
0.110092
-0.0697466
-0.079965
-0.0469018
-0.0549663
0.0513733
0.0504958
0.0118483
-0.0978122
0.0118003
0.0741632
-0.0438493
0.10094
0.0256184
-0.0827098
0.0268244
0.0462244
-0.0296055
-0.0434437
-0.0983102
0.0967788
0.0628963
-0.0613647
-0.123297
-0.0448651
0.139285
0.00232064
-0.00877907
0.000907081
0.00555361
0.0486213
-0.0338638
-0.0418868
0.0271282
-0.0145562
0.00749969
-0.006378
0.0134348
0.0227093
0.0367686
-0.0244605
-0.0350165
0.0502077
0.00160301
-0.0984239
0.0466154
-0.092111
0.0415997
-0.00923502
0.0597442
-0.0856223
0.0100617
0.0849103
-0.00934802
0.00761618
0.000408585
-0.00331619
-0.00470691
0.00584077
-0.00227691
-0.00696938
0.00340341
-0.021517
-0.0374906
0.0389688
0.0200398
-0.000573446
-0.0434593
0.0311747
0.0128596
0.0210118
-0.00647801
0.0072673
-0.0217999
0.085037
-0.0881419
-0.0384689
0.0415778
-0.0320732
0.0275415
-0.0294275
0.0339576
-0.0231803
-0.0152126
0.00956667
-0.0724651
0.106109
-0.0802128
0.0465674
-0.0735719
0.0404324
0.0615566
0.0895681
0.0416614
-0.0781053
-0.0531229
0.0258417
0.0156547
-0.101697
0.0602
0.0363564
-0.0798287
0.067523
-0.0240502
0.00933182
-0.0101864
0.0214161
-0.0205611
-0.00499973
-0.00445663
0.00732103
0.00214706
0.010875
0.0546163
-0.0571137
-0.00837611
0.0721021
0.0354778
-0.0608753
-0.0467059
-0.0568958
0.0713115
-0.0548539
0.0404386
0.00770824
-0.00958282
-0.00269935
0.00457485
-0.00149479
-0.00175504
-0.0115011
0.0147469
-0.0637284
0.0990982
-0.0565238
0.021155
0.0630239
0.048939
-0.061985
0.0381694
0.0821934
-0.048695
-0.0716682
0.0849359
-0.0813811
0.0744434
-0.0779982
0.132616
0.0664719
-0.0743546
-0.124733
0.0387777
-0.0244254
0.00520678
-0.0195599
0.0153513
-0.00624352
-0.0284887
0.0193816
-0.0630357
0.0132074
-0.0212209
0.0614952
0.0110869
-8.06121e-05
-0.0725005
-0.118025
-0.000617466
0.13153
-0.0128882
-0.0924822
0.112203
0.0619186
-0.000340859
0.000704503
-0.00578443
0.0054237
-0.0711806
-0.0288212
0.00165987
0.0983427
0.0831558
-0.0558852
0.0663306
-0.008725
0.00206332
0.00682316
-0.000160442
0.028894
-0.00489806
-0.0262129
0.00222411
-0.0919813
0.060051
0.0653281
-0.0333975
-0.0593336
0.0997307
0.0586826
-0.0990801
-0.0352757
0.029815
-0.0797018
0.0402707
-0.0350182
-0.0607335
0.0554801
-0.113095
-0.000500886
-0.0124795
0.126075
-0.0057386
0.00587573
0.00943044
-0.00956022
-0.00931289
-0.0013282
0.00891615
0.00172829
-0.0035243
0.00704342
-0.00875172
0.00521796
-0.0338616
0.0281074
-0.0266622
0.0324069
-0.042642
0.0395786
-0.00252729
0.00559147
0.123789
0.0159505
-0.126322
0.111959
-0.0527635
0.0530252
-0.112221
0.0489855
-0.0322482
0.0314192
-0.048157
0.117121
-0.0150989
-0.0910474
-0.0109751
0.0802383
-0.109363
0.114485
-0.0853631
-0.0315897
0.0184863
0.0147797
-0.0016764
0.0289788
-0.0301515
0.0629256
-0.0617516
0.0310095
0.147116
-0.0500397
-0.128087
0.00518079
-0.00736869
0.00467187
-0.00247763
-0.0276879
0.0467535
0.104319
-0.123384
-0.027845
0.0545241
-0.0496327
0.0229563
-0.127733
-0.0501043
0.0574545
-0.0845383
0.104171
-0.108274
0.0886411
0.0692954
0.0988667
-0.065633
-0.102529
-0.0488669
0.127506
-0.120681
0.0420428
0.00298708
-0.00233111
-0.000187051
-0.000470164
-0.0316663
-0.0199872
0.0404256
0.0112291
0.0209784
-0.0352601
-0.0894833
0.0345988
-0.0265978
-0.0206295
0.012628
-0.0737569
-0.0271678
0.0697781
-0.0233409
0.0229866
0.00936189
-0.00900876
0.0109649
-0.0856983
-0.014346
0.0890794
-0.0433322
0.0548093
-0.00553019
-0.00594647
-0.0745531
0.0792088
-0.0702933
0.0656386
0.123018
-0.0250172
-0.105381
0.00738022
0.0882222
-0.0958435
0.0484483
-0.0408275
0.0479743
-0.0427152
-0.118516
-0.0020887
0.00393049
0.00515208
-0.00698794
0.000473874
2.92445e-05
0.00247797
0.0412252
-0.117779
0.0771184
-0.000567284
-0.000855232
0.00485089
0.00119205
0.010964
0.00657577
-0.000658545
-0.0168807
0.120039
-0.113022
-0.0303909
-0.0374222
0.0471539
-0.0362394
0.0265079
-0.0916485
0.0739543
-0.0319427
0.049636
-0.0163037
0.0486917
-0.0470056
0.0146182
-0.0257016
-0.041263
0.0835495
-0.0165852
0.0355919
-0.00596657
0.00300982
-0.0326311
0.0348203
-0.0491419
-0.0267472
0.0410679
0.0114837
0.0431587
-0.00422245
-0.0504201
0.0623595
-0.0673996
0.0378671
-0.0328291
0.0332975
-0.0297021
0.131095
-0.134691
-0.0773659
0.0932987
0.0848962
-0.100829
-0.0252937
0.0244479
-0.0018903
0.00273747
-0.0257525
-0.0224756
0.0241395
0.0240894
0.0635798
0.0217423
-0.0422153
-0.0431065
-0.00269456
0.0348137
-0.0289098
-0.00320909
0.0189565
0.00817461
-0.00443403
-0.0226967
-0.0600566
-0.102023
0.0704307
-0.0211893
-0.0402946
0.018569
0.0429156
0.029621
-0.0105588
0.0439968
-0.0630589
0.0129961
0.0222903
-0.0203746
-0.0149111
0.0997778
-0.0995116
0.054284
-0.054549
0.0127712
0.0397342
-0.000887136
-0.0516181
0.0112554
0.108571
-0.104719
0.003663
-0.052441
0.0566396
0.00481906
0.0131243
-0.0139257
-0.00401684
-0.0330445
0.0232566
0.0214414
-0.0116526
0.0505957
-0.0345455
-0.0423874
0.0263356
0.0929803
0.00253669
0.0801663
-0.175683
-0.0235011
-0.12317
0.0253641
0.121306
0.0524272
-0.00665777
0.00493335
-0.0507025
-0.0448083
0.0656837
-0.0721782
0.0513021
0.00181123
-0.00738355
-0.00104776
0.000322943
0.000444833
-0.00206019
0.0012825
-0.109051
-0.0292497
0.10859
0.0297112
-0.103578
0.147566
0.0133838
-0.00186166
0.00435875
0.00169041
-0.00419241
0.00369243
-0.0139056
-0.0638942
0.074107
0.0400297
-0.0747398
-0.0102191
0.0449297
-0.0311389
0.132273
-0.161714
0.0605809
-0.0920744
0.00714999
0.0919121
-0.00698904
0.038741
-0.0430119
-0.00372103
0.00799253
0.110776
0.0222766
-0.130776
-0.0022748
-0.0786481
-0.0513964
0.0830232
0.0470229
-0.111061
0.150809
-0.0521591
-0.0766576
0.0194278
0.0785892
-0.021359
-0.00290055
0.0396157
-0.00287087
-0.0338423
0.0326764
-0.0272259
-0.0259338
0.0204848
0.144219
-0.0324854
0.0163944
-0.128128
-0.0611506
-0.0545436
0.0429349
0.0727607
0.074822
-0.0985086
0.092511
-0.068826
0.146376
-0.0364699
0.00907329
-0.118982
-0.0114881
0.038921
0.045648
-0.00438585
0.0015864
-0.0428469
-0.0194761
-0.0356594
0.0171999
0.0379443
0.0403484
-0.04068
-0.0417206
0.042055
0.0294752
0.114523
-0.0998866
-0.00208781
0.00018964
0.000972266
0.000930429
-0.032186
0.0584143
-0.135281
0.0257577
-0.0376039
0.011942
-9.84465e-05
0.0841974
0.0923873
-0.0805574
-0.0960274
0.0296576
-0.0214422
-0.0524874
0.0442728
0.0235021
-0.0654728
-0.0147437
0.0567133
-0.0113424
-0.0740261
-0.00586269
0.0912307
0.0870849
-0.0587929
0.0590776
-0.0873728
-0.122291
0.133327
0.0199724
-0.0171985
0.0861403
-0.0830092
0.014067
0.0110306
0.0513172
-0.0485018
0.0258533
-0.0260268
-0.0201063
0.0202804
0.0281718
0.0204403
-0.0259017
0.0694103
-0.0411682
-0.0637248
0.0354833
-0.0661222
0.0447069
0.031021
-0.00960567
-0.0887346
0.102265
0.0806482
-0.0941802
-0.0197137
-0.0601258
0.0315643
0.0482737
0.100553
0.0550634
-0.0533916
-0.102226
-0.0493005
0.0374322
-0.00684981
0.0187185
0.00413535
-0.0881349
0.0847206
-0.000719979
0.00229084
0.0050745
-0.00632564
-0.00102295
-0.101631
0.00227536
-0.00199511
0.101351
0.0124583
0.0219799
-0.000877805
-0.0335602
-0.0270373
0.0839575
-0.124266
0.0673453
0.0244896
-0.0632806
-0.0231784
0.0619679
-0.0913224
0.0578486
-0.0189618
0.0524361
-0.0757057
-0.0219007
0.0457236
0.0518834
-0.084509
0.0668604
-0.0303396
0.0479872
0.132292
-0.0761353
-0.166643
0.110486
-0.0444793
0.0440854
0.0400999
-0.0479659
-0.00183497
0.0708274
-0.0210253
-0.165692
0.0456799
0.123362
0.0124127
-0.0204373
-0.0287085
-0.0703787
-0.0155112
-0.00244402
0.0605583
0.139498
-0.104501
-0.0955556
5.3294e-05
-0.00825118
0.0105198
0.0212727
-0.0169736
0.0244455
-0.0580172
0.000287559
0.0386601
0.019071
-0.014755
0.0448016
0.0126898
-0.0427359
0.0778523
0.0795212
-0.105973
-0.0514017
-0.034879
0.0389474
-0.0190762
0.0150081
0.0392239
-0.0092038
0.023502
-0.05352
-0.0357885
-0.0166716
0.033241
0.00869648
-0.00402271
-0.00448552
-0.000188283
0.0828427
-0.142196
-0.0451211
-0.0354212
0.0290001
0.051543
-0.0118185
0.029222
-0.0843605
0.0669583
-0.00878822
0.0503024
0.0672173
-0.0651402
-0.0523787
0.108559
-0.0913441
0.051621
0.010992
-0.0185257
-0.00702207
0.0192074
-0.118344
-0.00316843
0.102304
0.0808661
0.0671513
-0.05845
-0.0160696
-0.0135627
0.0237048
0.00592567
-0.102203
0.0781941
-0.0335689
0.0575759
-0.0771146
0.114035
-0.0625354
0.025618
0.0328879
-0.129388
0.110623
-0.0141234
0.0570465
0.03274
-0.0152994
-0.0744895
-0.0817486
-0.00562905
0.0446277
0.0427497
-0.00213188
0.000903522
-0.100169
0.101398
-0.0224281
-0.0157402
0.0178277
0.0203414
-0.00378009
0.0334636
0.0251301
-0.0548015
0.0759354
0.000346826
0.023194
-0.0994762
0.0417768
-0.0405833
0.0187136
-0.0199078
0.0962213
-0.0635149
0.0511455
-0.0838514
0.0395436
-0.0236131
0.0220584
-0.0379888
-0.0643015
0.0274221
-0.0402344
-0.0326556
0.0303919
0.000870036
0.00139442
0.0497072
-0.09849
-0.0387898
0.0875726
-0.0345666
-0.0142329
0.0342052
0.014595
-0.0341154
-0.0272457
0.0090392
-0.0228205
0.00465801
-0.014493
-0.146262
0.00254328
0.120217
-0.00168841
0.00274205
-0.059278
0.0582235
-0.0034712
-0.0014963
-0.00138645
0.0659932
-0.0606689
0.0725274
-0.0400334
0.0138615
0.0410594
-0.0148868
0.0170332
0.000502069
-0.019892
-0.0446374
0.0504367
-0.0185539
0.0127539
-0.116566
0.0529973
0.0972778
-0.033707
-0.0239324
0.0198007
0.0159274
-0.0117956
0.122287
0.0498775
-0.0176927
-0.154472
-0.00758295
0.00206011
0.00549908
0.15319
-0.0278902
-0.0292347
-0.0960651
-0.0599352
0.0486693
-0.0104956
0.0217604
0.0504929
-0.0447036
0.0489439
-0.0547322
0.0469075
-0.0321723
-0.0586804
0.011356
-0.00239618
-0.0146169
0.0208001
-0.0151329
0.0144028
-0.020069
-0.061243
-0.0637573
0.0752164
0.0497847
0.0403759
-0.039833
0.0156215
-0.00083504
0.113058
-0.127844
-0.036565
0.0297364
0.014849
-0.00802318
-0.0180227
0.0182451
-0.0169081
0.0166845
0.0657991
0.0408607
-0.0847482
-0.0219119
-0.0777725
-0.0472397
0.0519308
0.0730791
-0.133012
-0.00654953
0.0411375
0.0984212
0.00943732
-0.00249516
0.0044149
0.0227843
0.0249403
-0.0321881
-0.0155358
0.0467463
0.0515559
-0.04202
0.0830139
-0.091879
0.0947056
0.0364556
0.0127001
-0.068871
0.140571
-0.0502089
-0.14258
0.0522191
0.0488097
-0.0614634
0.0163149
-0.00220455
0.00502651
-0.00499369
0.00217069
-0.0759147
0.108299
0.0207968
-0.0531817
0.0117195
-0.0151628
-0.0951038
0.0985473
0.0547446
-0.0700746
-0.0722422
0.0875729
-0.027229
0.0100777
0.0256365
-0.00848552
0.0280605
-0.0762402
-0.0400899
0.0882692
0.0300768
-0.0286908
-0.010154
0.00876785
0.0172335
-0.0187727
-0.0431033
0.0446417
-0.0357164
0.0533898
0.0541963
-0.0718691
-0.00903917
-6.06474e-05
0.00659939
0.00249814
0.0349824
-0.0437339
0.0184035
-0.0096522
-0.0571757
-0.0153594
0.0708663
0.00166991
0.0182407
0.0443637
-0.0429336
-0.0196705
0.015838
0.0479646
-0.0455616
0.0669436
-0.0568445
-0.0449522
0.0348554
-0.0631247
0.0671726
0.0696062
-0.0736547
-0.0576958
-0.00493087
0.0623355
0.000292732
0.021075
-0.0416034
0.0711232
-0.00434703
0.0492725
-0.0447031
-0.000227479
0.011131
0.015417
0.0453328
-0.0718811
-0.0313019
0.0277416
-0.0338613
-0.0734373
-0.0759
0.0757092
0.0736271
0.0625324
0.0616639
-0.0906544
-0.0335423
-0.088892
0.0878707
0.0721736
-0.0711516
0.0513424
-0.0599325
-0.00351342
0.0121029
-0.052876
-0.0724166
0.0591686
-0.00525849
-0.00221808
0.00527158
0.0689184
0.0835011
-0.112041
-0.065832
0.0503144
-0.0221463
0.0376664
0.0517543
-0.0244819
-0.0858504
0.0585784
-0.0758936
0.0173939
0.0822613
-0.023761
-0.0420981
-0.0217982
0.0435646
0.0203327
0.0174279
-0.133893
-0.0415518
0.132011
0.0381087
-0.0295492
-0.0721166
0.0387856
-0.039041
0.0677969
0.0630622
-0.0662716
-0.0645883
-0.053668
0.0506754
0.00560428
-0.0170297
0.0423486
-0.030922
0.0134104
-0.0136403
0.0360777
-0.0358435
0.118432
-0.0168492
0.0631904
-0.0563585
0.148173
0.0381197
-0.129935
-0.0123326
-0.0104513
0.013735
0.00904988
0.0828134
0.0941871
-0.0746899
-0.102311
0.0187842
-0.00420985
0.00115459
-0.015728
0.125957
-0.0546348
-0.160918
0.0895933
-0.0639364
0.0328748
0.0586872
-0.0276246
0.11899
-0.00935208
0.0248713
-0.00432809
-0.0260707
-0.00720311
0.0376006
-0.0456767
0.0370147
-0.0172709
0.0259362
0.014341
-0.00965087
-0.00603031
0.00134223
0.179336
-0.0408748
-0.150556
-0.14584
-0.0363328
0.0279219
-0.0593948
-0.00964461
0.0708744
-0.00183489
0.0401168
-0.0477931
0.00606482
0.00161166
0.0166259
0.0618792
-0.0240701
-0.0544337
-0.00400263
0.00331777
0.00291853
-0.00224679
-0.00905014
-0.010248
0.0138068
0.00549236
0.00686609
-0.0133359
0.0139703
-0.0724668
-0.107111
0.130604
0.0182359
-0.0185121
-0.0186335
0.0189051
0.0414662
0.0317059
-0.0446167
-0.0285573
0.0142065
-0.00627512
0.010854
-0.105843
0.120023
-0.00246021
-0.0676906
-0.00911102
0.00642446
0.0168963
-0.0491351
0.0945374
-0.0622989
0.0102364
-0.0438658
0.00522496
0.0284033
0.00746326
-0.0545208
-0.101278
0.108709
-0.114695
0.0415931
-0.0356075
-0.0359725
-0.0454303
0.0480235
0.0333805
-0.0519199
0.0595115
-0.00126093
-0.0521032
0.0534129
0.00543426
-0.0067439
0.0583345
0.00801347
0.00359704
-0.0699448
-0.0127703
0.00672796
0.0100901
-0.00403856
-0.0474317
0.0532603
-0.000228293
0.00594348
-0.0599416
0.0100655
0.0439318
-0.0326685
-0.13326
0.000235183
0.0637566
-0.039857
0.0723217
0.0314116
-0.0409789
0.0896958
-0.0801261
0.0322536
0.000241756
-0.0439475
0.0114521
0.0133742
0.0644874
-0.0628488
-0.015013
0.0544998
-0.0510799
-0.0877913
0.0843739
0.0523842
0.0961837
-0.0255535
0.0702745
-0.0631318
0.0730944
0.0875027
0.0126255
0.00282048
-0.102949
0.028359
0.0162368
-0.0251971
-0.0193984
0.0918998
-0.0329372
-0.00478834
-0.0541752
0.0123158
-0.0286687
-0.137951
0.0627052
-0.0169628
0.0922056
0.0373551
-0.0622614
-0.0407132
0.0656179
0.14485
-0.0243587
-0.105928
0.000573198
0.00391714
-0.00448581
-0.00568371
0.0601945
-0.0587145
0.00420351
-0.0144111
-0.049428
0.0233581
0.0404781
0.0443518
-0.0421596
-0.0772116
0.0750212
-0.0839951
0.0464589
0.0888145
-0.0512787
0.0426235
-0.0638417
-0.104376
0.125595
0.120065
0.0289878
-0.121799
-0.0272561
0.0284896
-0.0928928
0.00067581
-0.0721847
-0.0110578
0.0680339
0.0152084
-0.110842
0.0793581
0.0167564
-0.00327865
0.00371503
-0.00493787
0.00450095
-0.0203605
0.0210709
-0.02845
0.0277355
-0.108102
-0.0573734
0.105529
0.0599481
-0.00379777
0.00345279
0.00950544
-0.009156
0.0254111
-0.0175676
0.0131643
-0.0210072
-0.0629591
0.0313847
-0.0209739
0.0525519
-0.0840907
0.12603
0.0412005
-0.0831387
-0.0876608
0.0778077
0.0974318
-0.0433193
-0.0169046
0.0454695
-0.00500044
0.0378103
0.0740909
-0.106901
-0.00337617
0.0499798
-0.0297647
-0.0168423
-0.0316013
-0.0301872
0.0553367
0.00645288
0.0172067
-0.0170186
-0.0240105
0.0238234
0.00839393
-0.0437687
0.0458676
-0.0104938
0.0271007
-0.0118843
-0.0452147
0.0300006
0.0191805
-0.0345208
0.135403
-0.106206
-0.0079262
0.0494926
0.06834
0.103195
-0.106755
-0.0647804
0.112399
-0.00314519
-0.12772
0.0184668
-0.0263816
0.0263306
0.0327275
0.0205025
0.0240345
-0.0170528
-0.027484
0.0399515
0.154001
-0.0914397
-0.0478504
0.0564632
0.0442178
-0.0528304
0.0922862
-0.0417525
0.0390039