/*--------------------------------*- C++ -*----------------------------------*\
  =========                 |
  \\      /  F ield         | OpenFOAM: The Open Source CFD Toolbox
   \\    /   O peration     | Website:  https://openfoam.org
    \\  /    A nd           | Version:  7
     \\/     M anipulation  |
\*---------------------------------------------------------------------------*/
FoamFile
{
    version     2.0;
    format      ascii;
    class       volVectorField;
    location    "50";
    object      U;
}
// * * * * * * * * * * * * * * * * * * * * * * * * * * * * * * * * * * * * * //

dimensions      [0 1 -1 0 0 0 0];

internalField   nonuniform List<vector> 
11372
(
(9.03973 2.17789 0)
(-1.05006 -2.69045 0)
(7.58587 -2.80806 1.03654e-17)
(-2.05425 1.06051 -3.50252e-19)
(9.68871 0.492357 0)
(-1.26658 -2.4594 0)
(11.4823 1.26992 -1.50828e-18)
(9.73587 2.39372 -2.63762e-18)
(10.2709 1.48531 0)
(6.01548 5.65552 0)
(11.2442 1.09054 -1.36458e-19)
(6.57172 2.31479 1.00083e-18)
(13.1627 -2.29244 -2.43707e-18)
(10.6768 1.09373 7.22951e-20)
(8.22795 0.32602 0)
(-2.73713 0.558702 5.63556e-18)
(11.8524 1.19978 5.06151e-18)
(11.7598 1.77212 -2.29166e-18)
(9.75785 1.82303 -6.20435e-19)
(9.69281 0.9636 -6.06476e-18)
(9.04339 -2.72738 -5.04014e-18)
(10.6712 0.887942 3.93976e-19)
(8.65515 -9.27127 1.81006e-18)
(4.65748 0.367851 9.45872e-18)
(11.4515 0.89257 8.17216e-19)
(7.99219 1.04348 -8.31273e-19)
(2.99117 3.53297 -3.34188e-19)
(10.3315 2.00433 -2.2393e-19)
(9.86945 0.858194 7.94732e-18)
(9.79908 0.959813 0)
(9.66283 1.65787 -1.6952e-18)
(9.95531 0.85168 -4.83966e-20)
(9.59958 0.432379 3.53286e-19)
(10.6382 1.57559 -1.97375e-19)
(3.24684 1.73771 -3.08915e-20)
(10.1596 0.999026 -1.15368e-19)
(10.8421 0.956829 6.44772e-19)
(9.89156 1.29787 1.49457e-19)
(10.52 0.355661 -1.12854e-18)
(11.7445 2.71466 -1.20834e-17)
(11.9751 0.19603 1.01181e-17)
(9.89473 0.853554 2.25583e-18)
(10.5811 1.16432 0)
(6.14818 -0.20328 -5.46964e-18)
(10.2591 0.290526 5.23174e-18)
(10.0423 1.99648 -1.34362e-18)
(11.4179 0.232447 -1.79289e-18)
(5.97936 2.07903 -2.62207e-19)
(-1.1643 -4.97177 -3.62799e-18)
(10.6833 0.762986 -5.31814e-19)
(11.7009 0.368959 3.47595e-18)
(11.2975 1.07173 -3.30911e-18)
(6.23489 -5.379 4.40524e-18)
(8.34481 -0.479169 5.52107e-19)
(9.83318 1.59468 0)
(11.2781 1.56075 -2.3661e-18)
(5.96299 1.67807 1.41661e-17)
(-0.9372 -4.08603 -7.63645e-18)
(10.5788 0.719393 -8.61819e-20)
(7.14881 0.109136 0)
(12.8264 -4.11607 -3.94967e-18)
(8.07017 -0.370695 0)
(10.3492 0.998174 1.63082e-19)
(1.41941 1.70851 -1.96622e-17)
(7.52099 1.40696 -1.71683e-19)
(10.4295 1.01703 -5.76316e-19)
(12.1705 1.6449 2.95774e-18)
(1.51318 2.42516 -1.75631e-18)
(7.33328 -5.16891 6.25282e-18)
(9.25487 -2.46221 0)
(10.7182 0.806855 -3.2308e-19)
(10.9024 1.0759 -1.27369e-18)
(10.72 0.973309 -2.18574e-20)
(10.9904 0.800221 8.9835e-19)
(12.5988 2.37038 3.52504e-18)
(9.92831 0.892988 6.83156e-20)
(-1.26734 1.0506 -3.00744e-18)
(10.5095 1.81627 4.75252e-19)
(9.9464 0.809313 -5.9887e-18)
(13.9838 1.83292 0)
(1.58519 -0.117256 -3.96511e-19)
(3.88932 -6.04492 -8.66027e-19)
(0.773602 -2.69669 -3.90316e-17)
(9.24984 -3.74033 -9.76027e-19)
(17.8974 -0.855516 -8.28808e-18)
(11.4004 8.92264 6.98156e-18)
(10.0959 1.15493 0)
(10.5095 1.34593 6.96592e-20)
(9.0053 0.699627 -3.08012e-18)
(13.4301 4.50367 -8.52899e-18)
(10.7018 0.929587 -5.32553e-19)
(10.3586 -0.631026 -7.54693e-20)
(-1.70991 -0.637562 0)
(9.91311 -2.92936 6.93187e-19)
(10.5137 0.187287 1.43642e-18)
(7.05584 1.03201 -1.14276e-18)
(11.2196 1.6278 8.29798e-18)
(6.04591 1.33967 -9.90713e-20)
(3.21974 -2.74837 9.13413e-18)
(10.3432 1.26791 1.52014e-18)
(10.0485 0.492151 2.92668e-18)
(8.49896 -0.260061 8.2429e-18)
(9.93801 0.613905 4.66204e-18)
(10.9048 0.898556 1.91236e-19)
(9.77179 0.367364 -5.12608e-18)
(1.92816 2.17174 1.31615e-17)
(2.83415 -0.296076 -1.68916e-17)
(9.89242 0.60557 -1.25795e-17)
(10.2808 1.3964 -2.97045e-19)
(9.17853 0.672225 0)
(10.2792 1.83316 -5.72315e-19)
(8.89873 0.221564 1.70864e-18)
(9.34742 -7.2386 2.2218e-18)
(9.8176 1.17263 -6.29017e-18)
(4.32548 1.66631 -7.25473e-21)
(10.0841 0.505079 -3.58823e-19)
(11.5901 2.40908 2.0807e-18)
(9.99125 1.10041 0)
(10.6954 1.09142 0)
(4.5897 -0.546351 4.00498e-19)
(4.51183 1.93888 9.03761e-20)
(11.0169 -0.229878 1.13259e-17)
(6.83965 0.52447 -4.601e-18)
(10.1279 1.45951 1.12887e-18)
(7.54556 -0.474714 2.73895e-18)
(9.77658 0.894439 2.78005e-18)
(11.3675 1.09361 1.22095e-18)
(11.994 1.5605 4.72504e-18)
(10.9545 2.85103 -4.9151e-19)
(13.0622 1.13176 -6.89191e-19)
(10.4732 1.74658 -4.24403e-18)
(11.563 3.34519 9.28064e-19)
(4.57728 1.19726 -1.10876e-17)
(13.298 -0.64654 1.4876e-18)
(11.1891 0.47198 0)
(10.7942 1.08036 3.68434e-18)
(11.5905 1.66132 -3.90239e-18)
(6.40441 -0.0769709 -5.37334e-20)
(1.76557 4.06413 -1.25003e-17)
(9.90712 0.628055 0)
(7.78908 0.285928 -1.06665e-19)
(9.93402 0.89794 0)
(9.63646 -2.4401 4.77372e-18)
(8.96435 -5.20184 -4.99899e-19)
(9.62295 0.4813 -3.69798e-20)
(10.8031 2.11417 2.90655e-19)
(-0.255018 2.39304 4.05093e-18)
(9.56981 1.90752 0)
(9.68862 1.52803 0)
(11.518 2.7771 4.69185e-18)
(10.6405 0.255302 9.6004e-21)
(10.9803 7.12479 1.98285e-18)
(11.9609 0.530976 4.55539e-18)
(-1.83416 -1.14538 0)
(10.0044 1.42191 -3.19446e-18)
(10.3646 0.823544 -3.88592e-19)
(10.9696 1.28533 -9.85057e-19)
(11.0186 1.15218 -1.49146e-18)
(5.60655 1.55614 0)
(9.73125 0.293551 -1.42179e-17)
(10.9871 0.781609 1.49379e-19)
(10.9204 0.905729 0)
(12.0508 0.133796 5.94537e-18)
(9.95132 0.849422 1.84852e-17)
(-2.4758 4.17098 2.80249e-18)
(12.2714 -0.748575 0)
(12.3581 1.35794 5.4067e-18)
(-2.21391 0.177575 0)
(10.8706 0.93572 4.62032e-19)
(10.4206 0.959366 -3.61256e-20)
(3.65487 3.67313 2.82326e-18)
(10.4182 0.841671 0)
(9.1066 -1.39379 -2.8384e-18)
(12.6416 3.01149 -7.07882e-18)
(8.58288 1.58102 -3.80508e-19)
(13.6906 4.87349 1.98339e-19)
(9.69735 2.72911 0)
(4.02417 2.37676 7.84893e-20)
(14.3571 3.97351 4.84025e-18)
(9.97975 0.441491 -5.58154e-18)
(9.5657 -3.67651 -2.67221e-19)
(9.59868 1.07639 1.29931e-17)
(12.8778 6.63833 -1.97295e-17)
(8.50686 2.59335 -7.61063e-19)
(5.84668 -2.14788 0)
(11.2692 2.95715 1.09991e-18)
(6.95901 3.94443 0)
(13.1494 1.2266 3.04464e-18)
(8.44329 0.265726 0)
(-1.01495 -4.06557 -2.40874e-19)
(10.611 0.746819 -2.76804e-20)
(9.78274 1.24508 0)
(8.29729 0.628514 2.47544e-17)
(11.477 1.05695 -2.54081e-18)
(12.0992 1.28195 5.33322e-19)
(11.144 0.731013 5.63967e-19)
(2.06972 2.51723 4.94162e-18)
(9.80672 0.91113 3.44477e-19)
(13.1732 3.91837 2.0322e-18)
(11.8801 2.31969 -1.77407e-18)
(9.78739 1.02514 -8.77858e-18)
(9.23133 0.685501 -1.55746e-18)
(9.51293 0.761531 0)
(6.13128 0.701227 -2.16846e-18)
(10.2704 1.55845 0)
(11.1367 1.24402 2.5709e-18)
(10.3987 0.527999 -5.90655e-19)
(11.2259 1.1471 -4.93878e-19)
(11.4246 1.54923 2.09787e-19)
(8.11862 1.7712 1.14411e-18)
(14.5131 1.56862 -4.21662e-19)
(11.0745 1.13969 -8.89277e-19)
(9.77698 1.279 0)
(9.72664 0.853679 -4.98961e-18)
(9.86184 0.618821 0)
(8.51433 -0.60458 1.81403e-18)
(9.86823 0.83261 -1.65804e-17)
(9.64498 1.01192 1.93531e-20)
(10.9861 1.00874 4.78006e-18)
(-2.69367 0.684727 1.01568e-17)
(8.83453 2.56981 -9.42177e-19)
(9.68802 1.04898 -6.81725e-18)
(1.73999 -2.70751 1.75311e-17)
(-0.620129 2.36826 -2.31868e-17)
(9.88221 0.63019 4.80031e-18)
(10.0927 5.61395 1.5085e-18)
(-1.25776 -0.972289 1.61789e-19)
(10.5837 0.764554 -1.513e-18)
(9.89749 0.525646 0)
(10.4844 -0.482269 -2.0365e-18)
(9.77597 2.37062 -2.66735e-18)
(9.86971 1.60442 2.18535e-18)
(12.3318 1.69484 -3.47524e-18)
(10.4969 1.30317 -1.19587e-19)
(8.36098 3.10512 1.89957e-19)
(-2.75301 1.01545 5.05959e-18)
(12.9663 1.83353 0)
(7.48608 1.03909 -6.0519e-19)
(8.46418 -0.544336 -4.54096e-19)
(12.1517 -2.09157 4.72443e-18)
(9.95693 0.857605 -1.3052e-17)
(14.1311 2.58489 3.60788e-18)
(9.99612 -2.6149 2.58914e-18)
(10.1116 1.26922 2.84362e-18)
(9.2572 -3.41423 8.17933e-19)
(10.3819 1.87048 0)
(9.63362 1.50545 8.18875e-18)
(8.38136 1.87445 -7.7338e-20)
(9.96122 1.84448 -5.89835e-18)
(13.1079 6.28671 -1.06675e-17)
(10.8501 -0.680165 -4.70056e-19)
(10.7071 0.872668 -4.7798e-20)
(17.4688 7.03857 1.73344e-18)
(9.90368 1.28189 -1.33543e-19)
(13.5473 1.21825 -7.87099e-18)
(9.52185 0.215477 3.4886e-18)
(8.0269 -1.58804 -1.44206e-18)
(10.0063 1.1528 -1.23293e-18)
(9.02277 2.19824 4.13808e-20)
(10.2227 0.0649741 9.85277e-19)
(12.3792 0.842704 -1.00309e-18)
(9.91316 0.887075 -1.99729e-18)
(7.26222 1.49109 -8.65424e-19)
(9.80059 0.630494 2.84598e-18)
(6.80878 -3.10938 -5.00016e-18)
(11.8974 1.82596 3.53492e-18)
(8.28644 1.38551 0)
(6.53098 -1.6448 -1.44417e-18)
(0.849593 3.96613 2.58858e-17)
(12.0999 0.449609 0)
(0.392544 0.647246 -2.27652e-17)
(9.88013 1.70106 1.16818e-18)
(9.77775 4.08539 -2.61853e-19)
(11.3417 0.669813 0)
(10.7523 0.471889 0)
(9.08359 -2.64836 0)
(10.1599 0.069832 -8.89197e-19)
(10.2006 1.17053 3.04127e-19)
(10.3704 -0.42305 2.48574e-18)
(8.35483 1.03952 -3.1038e-19)
(10.1478 0.56029 6.11677e-20)
(10.2176 -0.764526 0)
(9.65942 0.17798 0)
(10.2866 -0.125841 -1.1463e-18)
(10.9108 -1.06741 -1.95552e-19)
(10.4599 1.28134 -1.15974e-20)
(5.36303 -1.98075 2.20511e-18)
(-2.84051 4.136 -3.87697e-17)
(10.3222 1.0277 7.89434e-19)
(7.32164 1.55304 -3.41057e-19)
(6.12829 3.89801 0)
(9.85589 1.00956 4.38676e-18)
(1.88039 3.18719 9.72393e-18)
(10.351 0.557154 -8.43991e-19)
(8.35762 -2.79316 -3.62314e-18)
(10.0747 1.5958 -7.1845e-18)
(7.2894 3.79211 0)
(9.9249 1.10879 4.97606e-18)
(11.5031 -2.14496 -1.71701e-18)
(-2.65307 0.37845 -4.41467e-18)
(9.94595 0.88959 7.15587e-18)
(13.0522 1.20388 0)
(2.88763 1.81049 -1.65213e-17)
(7.64543 1.11035 -2.83979e-18)
(10.866 0.862275 -1.5997e-19)
(10.886 1.46847 -1.65232e-18)
(3.96247 -5.28746 1.22392e-17)
(10.5687 0.719613 0)
(9.94793 0.851361 3.26342e-18)
(11.1878 1.00579 0)
(7.82122 -6.64668 -2.91647e-19)
(9.94917 0.803348 1.85168e-17)
(4.39116 -0.234141 7.51777e-19)
(16.6632 0.643169 3.65881e-18)
(10.1736 0.553014 -2.337e-18)
(10.0253 2.10085 -5.04976e-19)
(6.77772 -2.48443 -6.87579e-18)
(12.6626 -0.632917 5.22619e-18)
(11.9561 1.5791 -8.56663e-20)
(12.753 0.396023 -6.28233e-18)
(10.2102 3.1758 -1.12656e-19)
(-2.52479 0.659515 0)
(9.78571 0.456387 7.29327e-20)
(9.71766 0.754122 0)
(9.76721 1.04773 1.36151e-18)
(8.75224 3.28703 3.11876e-19)
(11.8812 1.88573 0)
(8.82821 -1.92337 0)
(10.3932 5.4693 2.81803e-18)
(11.4233 1.15944 -2.8798e-19)
(6.66173 1.11013 2.40606e-18)
(9.8067 0.938089 5.74044e-18)
(6.70195 5.21795 0)
(11.3548 -0.143873 -3.31236e-18)
(8.77495 -0.095819 6.3657e-20)
(12.5058 2.30773 -5.20647e-18)
(10.7675 0.896063 8.18213e-20)
(0.494946 1.48014 0)
(10.2714 2.20531 3.38062e-18)
(11.4799 2.41059 1.87216e-19)
(-0.817613 -1.16251 0)
(7.71219 -0.351722 0)
(10.4663 -0.24177 0)
(10.9346 1.10874 2.40803e-18)
(10.3561 0.796675 2.49768e-21)
(9.31633 0.426294 -3.57719e-19)
(10.5265 1.07557 2.05468e-18)
(11.2725 1.32069 0)
(7.39256 0.623807 3.42395e-18)
(9.9582 0.871494 6.60031e-19)
(3.31767 6.94721 -2.18962e-18)
(12.0641 1.5599 2.76222e-19)
(8.67543 0.761512 1.26097e-18)
(8.20761 -1.41629 5.06586e-18)
(9.80457 0.071853 6.52606e-18)
(11.5021 -0.248406 3.7078e-18)
(6.12303 0.958251 2.03828e-17)
(8.87272 0.533933 -3.16443e-18)
(9.26874 1.3576 1.18227e-19)
(9.80951 1.08965 0)
(10.3379 1.04247 0)
(11.4633 1.19064 1.55874e-18)
(9.71356 -0.368478 1.55823e-19)
(8.6687 1.14541 -4.93328e-19)
(10.1419 0.594831 -2.27891e-18)
(-2.07437 2.53693 2.61022e-17)
(12.2271 1.92575 -5.18633e-18)
(5.09799 2.11085 0)
(8.17298 2.07168 1.21889e-17)
(9.69886 0.654312 3.562e-18)
(9.77003 0.711664 0)
(10.5841 0.570298 -3.61602e-20)
(-2.81396 0.361448 1.58636e-17)
(-0.975172 1.80329 3.8701e-18)
(10.1548 3.87855 9.42639e-20)
(7.90834 2.00606 -2.48287e-18)
(6.36643 0.0656313 -5.03068e-18)
(9.86891 0.677098 -9.02454e-18)
(11.4593 -0.563036 1.41452e-19)
(8.42244 3.19635 0)
(10.4953 1.45982 -5.60782e-19)
(9.7712 0.91898 -2.25519e-20)
(11.2723 0.198387 0)
(11.116 1.42157 0)
(10.1452 -0.137763 0)
(6.26103 6.96299 -1.28728e-18)
(0.408894 2.48072 9.01882e-18)
(10.3657 2.632 9.63593e-20)
(11.7072 1.72933 1.65679e-19)
(11.0689 1.46124 3.61515e-18)
(4.42639 -0.0463178 2.53688e-18)
(4.95303 0.273634 3.09855e-18)
(10.0442 1.38576 -2.77174e-18)
(11.3809 1.50348 4.11743e-18)
(10.0485 1.15024 1.46677e-18)
(11.1259 1.22402 7.12956e-20)
(10.7331 0.880806 0)
(17.0134 3.6809 0)
(10.374 -6.1172 0)
(12.0183 1.81971 3.23146e-18)
(9.1936 0.433541 6.30365e-19)
(10.6286 0.939218 -4.84256e-19)
(9.9949 1.27469 -1.39384e-19)
(-1.41263 1.6831 -5.65977e-18)
(10.7143 0.718855 -3.50325e-20)
(10.4891 1.07275 -8.12085e-19)
(3.33213 -0.267993 -7.39424e-18)
(5.30823 -1.12627 2.19973e-19)
(11.2438 1.09759 5.21008e-19)
(10.9929 0.884419 9.49244e-19)
(9.98031 0.479518 0)
(7.27061 0.517487 -6.56415e-19)
(10.9613 0.929885 9.01333e-20)
(-1.01087 -4.42761 -9.98379e-18)
(-2.37383 2.35188 1.09637e-17)
(-0.258503 -3.62969 5.01042e-18)
(11.7259 -0.950109 1.38996e-17)
(9.82476 -1.8801 0)
(10.0635 0.911454 0)
(10.9615 1.01026 -5.98178e-19)
(7.05973 0.122587 -2.07153e-18)
(10.4906 0.928959 2.50891e-19)
(9.96123 0.729687 2.79088e-18)
(8.4249 10.3207 1.74617e-18)
(9.77249 1.68408 -3.89281e-18)
(9.933 0.908382 -1.19815e-17)
(-0.942129 2.89782 4.76919e-18)
(9.72112 1.3424 -2.16677e-19)
(8.93974 1.43538 -2.64194e-18)
(9.95246 0.814919 1.20768e-17)
(10.7711 1.07479 0)
(10.4838 0.600483 8.72659e-19)
(10.3303 0.727306 -1.51045e-20)
(-0.989384 -1.20018 1.20583e-16)
(5.93177 1.74646 6.01383e-20)
(10.0925 1.25873 0)
(5.99561 1.14137 7.35143e-19)
(9.71011 0.986214 5.98718e-18)
(11.1047 3.00247 2.41529e-18)
(11.0932 0.793882 8.12957e-19)
(11.8374 4.71743 -2.13586e-18)
(10.7802 1.47174 4.08952e-18)
(9.94592 0.690006 3.68992e-18)
(11.2416 1.01149 0)
(10.3344 0.54279 -1.43226e-18)
(-2.4757 0.0630841 -4.55017e-18)
(-1.10858 -1.01413 -3.47274e-17)
(9.86956 0.806369 3.33286e-18)
(0.0913718 2.32775 5.51402e-18)
(5.53895 0.357855 -8.03543e-18)
(10.2951 0.825767 -2.11425e-19)
(14.0267 -1.36234 3.43671e-19)
(11.1717 0.91955 -2.39621e-18)
(8.69415 1.69826 3.30771e-18)
(12.5133 0.925813 0)
(8.60638 -1.07807 -9.09094e-19)
(6.99298 -0.210576 1.99941e-19)
(12.0077 2.28856 8.3136e-18)
(9.85846 0.351385 0)
(10.4405 0.677678 -3.56515e-20)
(8.10056 0.922225 2.78764e-19)
(6.83652 1.42884 9.05306e-18)
(9.14853 -1.0687 4.26409e-18)
(11.7886 -2.02701 6.18458e-18)
(7.42092 -1.56671 -5.75233e-20)
(5.60286 6.13448 0)
(11.2023 0.960547 -1.95697e-18)
(10.0943 -0.532557 3.05314e-19)
(6.95845 1.27174 -9.82545e-19)
(8.92516 -3.14105 0)
(10.8193 1.22441 -1.08443e-18)
(8.11741 1.53168 -1.54495e-19)
(9.7695 0.864275 -2.51527e-18)
(8.62355 2.21737 0)
(4.59523 1.48683 0)
(7.87634 4.18014 4.51114e-18)
(13.042 -1.3096 4.0007e-18)
(10.7512 0.88559 1.39662e-20)
(10.5638 1.10609 -8.4031e-20)
(7.80802 1.9773 -4.24055e-19)
(9.72054 0.898211 1.64023e-17)
(2.19065 1.75997 0)
(-0.765402 0.789745 4.23483e-17)
(10.1311 0.535278 0)
(10.3938 1.29286 -9.85257e-19)
(-1.02053 -2.42055 -1.55382e-17)
(7.41965 0.280483 -4.44005e-19)
(11.4023 0.47515 2.22157e-18)
(10.7851 0.833802 0)
(10.2071 1.33991 0)
(11.4206 3.10689 -1.24884e-18)
(10.0731 0.967031 1.93315e-19)
(10.1612 1.62843 3.90598e-18)
(10.2172 0.844698 0)
(11.6562 1.26545 -2.20713e-18)
(9.02312 -1.70497 -1.84578e-18)
(8.41451 -0.558325 1.43932e-19)
(10.6152 1.02746 1.07346e-20)
(9.76673 0.977208 1.32153e-18)
(9.91615 0.785801 6.96385e-18)
(9.92718 0.963757 -1.83573e-17)
(11.3791 2.8059 -9.90826e-19)
(12.0541 6.73174 1.0071e-17)
(8.0745 -2.33587 -1.77027e-18)
(9.21603 1.25415 8.99835e-18)
(10.9942 1.13271 0)
(0.801106 -0.267709 0)
(10.1084 0.55081 -1.68622e-18)
(13.4793 2.61334 -9.46296e-18)
(9.98744 0.542776 -1.1541e-19)
(8.9859 2.73893 8.11485e-19)
(8.72472 -0.255291 0)
(12.3831 0.29095 5.63416e-19)
(9.92083 0.64932 -1.4405e-17)
(9.94067 0.913255 1.34529e-17)
(10.0112 0.410514 0)
(8.8267 0.60176 -6.32738e-18)
(8.69376 4.29402 -5.65533e-20)
(8.23801 2.22248 0)
(11.9353 -0.117022 0)
(10.1726 1.90092 1.51348e-18)
(10.1087 0.639823 1.42715e-18)
(6.49816 0.356083 5.34877e-20)
(10.8306 1.18036 -9.51086e-19)
(8.87862 2.13682 6.03766e-18)
(10.3643 0.0876656 -2.09809e-19)
(2.00099 -0.400372 0)
(10.4764 1.35842 -7.02339e-20)
(11.7868 2.92524 -1.50022e-18)
(11.4236 1.07853 0)
(10.5064 2.12959 1.74253e-19)
(10.6756 1.19147 2.95744e-18)
(10.4497 1.92756 5.19144e-19)
(11.6078 1.25551 2.0483e-18)
(10.7322 0.911443 2.57804e-18)
(8.04783 1.32624 0)
(10.7289 -1.46993 5.74628e-20)
(10.4315 0.785583 -8.34088e-19)
(10.4872 7.10168 -1.79368e-18)
(9.70722 1.47093 -2.83421e-18)
(10.5046 0.7016 -4.0145e-19)
(-2.2322 3.11966 -6.86982e-18)
(9.69351 -3.93028 -5.87911e-19)
(9.08761 1.99634 8.6202e-18)
(9.12518 3.66694 0)
(11.2314 1.20615 -3.0511e-18)
(9.53567 -1.35381 -4.69974e-18)
(11.4436 -1.34103 6.25155e-19)
(12.793 6.04209 5.75031e-18)
(2.16413 -0.662687 -9.45791e-18)
(10.3813 0.507742 3.099e-19)
(11.1887 -1.38063 0)
(12.2011 1.56912 -5.0659e-18)
(9.87924 0.845996 2.87133e-19)
(10.6617 -0.123232 6.05281e-19)
(10.2869 0.305808 -8.13639e-20)
(5.43302 2.03616 0)
(9.88122 1.07352 2.0769e-18)
(11.2691 0.27575 0)
(4.54933 1.56157 2.87641e-20)
(9.94961 0.881597 -7.97267e-18)
(10.2901 1.484 1.25669e-18)
(10.3771 0.904285 2.17015e-20)
(13.0401 0.498681 7.46832e-18)
(7.71336 1.00815 -2.61941e-18)
(11.163 1.13756 9.63237e-19)
(6.26063 3.73969 -1.97635e-18)
(9.46876 -2.16353 2.59813e-18)
(11.3974 0.626483 -5.04359e-19)
(6.29836 0.343506 -1.41282e-18)
(10.3865 1.21338 -1.30855e-19)
(10.5244 4.46008 1.08918e-18)
(10.2588 1.4909 1.18896e-19)
(11.4136 11.3781 -2.84702e-18)
(9.96218 0.38118 -3.4193e-18)
(8.5974 3.08285 7.13815e-18)
(9.04297 2.25266 9.26426e-19)
(10.3012 11.5407 7.70862e-18)
(10.6223 1.12235 2.74433e-19)
(10.1229 1.89521 -4.9997e-19)
(1.47228 -0.299082 8.20971e-19)
(11.1985 1.23874 1.53112e-18)
(12.6748 0.611623 3.73125e-18)
(4.51416 -2.86085 1.17933e-17)
(12.3191 -2.56054 -2.97298e-18)
(10.594 0.365325 2.24062e-19)
(5.67487 9.07481 4.85062e-20)
(10.6407 1.07337 8.10517e-19)
(2.57072 0.60429 -6.91002e-18)
(10.7914 0.867991 1.06522e-19)
(7.71158 0.236491 -3.97383e-19)
(11.3768 1.72283 3.30246e-18)
(6.75587 0.610162 2.79121e-18)
(8.29316 0.178695 0)
(4.23255 0.555849 5.30465e-20)
(11.8376 -0.277576 4.58318e-18)
(12.4717 -0.719295 -1.03216e-17)
(10.3764 0.554833 0)
(9.69151 2.9482 0)
(8.8264 2.95359 -8.05236e-18)
(11.7899 1.30099 2.91973e-18)
(11.041 1.53699 0)
(9.9601 1.06582 -4.20664e-18)
(6.09708 0.333906 0)
(8.76155 4.80291 0)
(7.7997 1.41596 -8.19488e-20)
(10.3728 1.02401 1.96682e-19)
(6.33601 0.459781 -1.29485e-18)
(10.0901 0.696532 2.05194e-19)
(8.19124 2.26663 1.24058e-18)
(-1.22169 -2.21078 1.48952e-17)
(10.4828 1.04454 -3.66814e-20)
(9.81949 0.758375 -5.80972e-18)
(9.95898 1.18084 2.91909e-18)
(10.7143 -7.07384 2.06972e-18)
(9.88761 0.115879 6.35019e-19)
(11.4211 -7.25969 4.37281e-18)
(11.045 -2.07776 1.28187e-18)
(11.36 1.59854 2.37819e-18)
(0.991919 1.82783 1.59663e-20)
(10.78 -0.906244 7.08605e-18)
(11.3448 0.0459721 -1.93341e-18)
(8.43436 0.911929 7.8313e-18)
(8.41972 1.02279 9.18409e-18)
(9.91017 -0.266074 2.32279e-18)
(11.109 0.986828 -3.86493e-18)
(12.319 1.58711 -2.05733e-18)
(13.0453 -1.05753 -3.89757e-18)
(9.63764 -0.9849 6.63751e-19)
(10.4153 2.14636 -3.42004e-19)
(14.1044 -1.65776 -3.94731e-18)
(9.88006 0.904454 0)
(10.8284 1.60019 2.57008e-18)
(10.545 0.560971 7.21617e-19)
(13.1336 -2.73762 3.02792e-19)
(10.3923 1.87561 -4.91036e-18)
(-1.25882 -2.51077 0)
(9.94957 0.790487 -2.09952e-17)
(10.4409 3.13403 6.11467e-20)
(11.6703 0.0813741 2.33443e-18)
(9.97723 0.278716 0)
(10.8088 -1.92369 3.32706e-19)
(10.6698 0.860033 -4.54984e-21)
(10.0883 0.702683 2.67596e-19)
(9.71602 0.94305 7.65786e-20)
(10.3184 1.3173 5.87035e-19)
(11.3545 1.55911 2.60396e-18)
(9.47354 -1.45575 -4.1777e-18)
(10.1814 3.27747 0)
(10.8519 0.858923 -1.19177e-19)
(10.8343 0.867949 -2.62467e-19)
(4.95977 -2.1162 0)
(11.1343 1.1255 1.89366e-18)
(4.1256 -7.63125 9.65536e-18)
(10.0137 1.12541 3.91777e-19)
(8.00159 -0.0316128 7.57682e-19)
(9.92903 0.893449 -7.99104e-19)
(14.1195 0.781145 -1.01308e-18)
(9.69798 -0.0973892 -2.01889e-18)
(2.70758 -5.5534 -1.80358e-17)
(10.2557 0.817477 0)
(10.4204 1.17863 0)
(9.37436 0.395486 2.06435e-18)
(16.1956 -0.657945 1.62556e-18)
(7.16665 0.204852 0)
(1.27908 -1.84064 3.12608e-18)
(4.46531 -1.69395 8.41209e-18)
(5.20006 2.41797 -8.5184e-19)
(11.029 1.17822 -1.43022e-18)
(5.06268 -0.393646 7.54829e-20)
(13.7552 -0.683009 4.62261e-19)
(5.00906 -7.92775 0)
(9.80844 0.779001 6.13559e-19)
(9.72183 1.41877 0)
(7.84934 0.857609 -1.53067e-19)
(6.17382 -0.219045 3.12171e-19)
(10.4283 0.94548 1.1111e-19)
(10.0382 0.639791 3.97109e-18)
(9.67259 -0.252689 0)
(8.93741 -0.425538 -4.6928e-19)
(9.68013 2.20935 0)
(10.936 2.42856 -1.16469e-18)
(2.8783 3.60591 -4.91558e-18)
(9.83665 -1.15603 -3.30971e-18)
(10.274 2.51707 -1.44027e-18)
(10.4175 0.759908 3.14111e-19)
(10.3786 1.19033 7.08911e-20)
(9.5496 0.32148 -2.10578e-20)
(10.1798 -1.28532 1.68799e-19)
(9.13758 -0.0922406 -2.53118e-20)
(9.98383 0.545164 -6.53116e-18)
(9.94357 0.666133 3.33723e-18)
(9.99629 0.713269 -3.82046e-18)
(11.7267 0.917404 -1.201e-18)
(9.78182 -2.13873 -2.7809e-18)
(10.5541 0.449472 -3.2925e-19)
(9.2185 -3.13758 -4.46647e-19)
(9.90268 0.917323 3.76709e-18)
(11.0972 1.63079 -3.85273e-18)
(10.3551 0.962198 -1.31556e-18)
(-1.47519 1.09974 -3.05648e-17)
(12.5989 -0.0283199 9.95978e-19)
(12.7817 4.52844 -2.21535e-19)
(9.02651 0.263878 0)
(11.2788 1.01325 0)
(10.0302 0.637354 7.94857e-18)
(9.99218 0.710861 4.8665e-18)
(10.0369 1.35895 5.67954e-18)
(10.4816 1.864 -1.55067e-18)
(9.82544 0.620642 9.82568e-18)
(-2.09 0.162436 -2.66e-17)
(11.8459 3.19293 -1.57465e-20)
(10.0598 0.525526 -9.20602e-18)
(2.19688 0.67662 -1.84043e-19)
(9.60354 -2.75624 0)
(9.5302 0.118824 0)
(10.5056 1.1427 0)
(9.8984 0.493764 2.68079e-20)
(9.24514 3.4869 0)
(11.0464 1.09354 1.18917e-18)
(10.8721 2.41452 9.41515e-19)
(11.331 3.24281 -1.45657e-18)
(7.70621 0.182581 6.12661e-18)
(11.4252 4.11559 2.39878e-18)
(12.5488 0.723179 3.10321e-18)
(10.0084 0.706272 -7.38541e-19)
(10.1632 1.15997 2.09488e-19)
(9.10516 0.415907 -5.84507e-19)
(10.8391 1.09212 5.24155e-19)
(8.46401 -0.689059 -3.8326e-18)
(11.9796 -8.47023 -1.72598e-19)
(10.0151 1.13081 0)
(8.82492 0.0377421 -1.90326e-19)
(10.8615 1.26145 8.04417e-19)
(10.8908 0.876114 1.35043e-20)
(12.5542 3.94176 -7.78451e-18)
(7.24845 3.8197 6.13915e-18)
(8.5965 1.72719 1.37872e-20)
(10.9431 1.58641 1.27608e-18)
(10.3853 0.878741 -7.37526e-19)
(10.1396 3.67022 0)
(15.7515 -1.29539 5.88871e-18)
(11.763 2.33861 -2.77586e-18)
(12.1513 2.11883 -4.80237e-18)
(11.6903 0.594531 6.90986e-20)
(8.18374 0.00572436 -8.79909e-18)
(8.44584 1.15441 -4.14892e-18)
(-2.49714 1.85393 1.4156e-17)
(6.17957 2.52507 5.45362e-19)
(1.18193 2.11466 -2.78807e-18)
(11.1927 3.17503 6.28383e-19)
(10.8767 8.90101 1.30384e-18)
(12.2317 -4.12619 9.85406e-18)
(7.77727 0.865032 -3.09721e-18)
(12.71 1.96444 2.07123e-18)
(9.8637 0.646299 8.14e-18)
(11.1943 1.45995 4.21384e-18)
(9.981 1.15036 3.09837e-18)
(5.16338 3.0396 4.60721e-19)
(7.73377 1.05048 2.53876e-20)
(3.89501 3.8454 -9.15632e-18)
(10.2575 -0.419926 2.36647e-18)
(13.0788 1.92137 0)
(9.66447 1.44855 0)
(10.9767 0.883422 3.59522e-18)
(7.78877 1.22765 1.50874e-18)
(9.73665 0.922275 -1.07598e-17)
(10.4802 0.856482 4.84386e-19)
(13.0454 3.28858 -2.04135e-19)
(7.6794 0.480554 -1.62524e-18)
(-1.66634 0.779874 0)
(9.9451 1.07443 -5.59579e-18)
(10.4863 -0.241121 1.20607e-18)
(10.4862 0.999312 -5.95913e-19)
(10.2218 -2.67684 1.27742e-18)
(9.93956 0.825354 7.16165e-18)
(4.70724 -6.13702 4.07052e-18)
(12.1939 2.58876 7.82549e-18)
(9.31807 3.79222 -1.42725e-18)
(9.94369 0.833347 1.92845e-18)
(3.37858 -0.921467 -2.59777e-19)
(17.5056 -8.03065 0)
(9.17187 0.0940254 3.41563e-18)
(13.0641 2.60825 6.26715e-18)
(11.0207 -0.902825 -8.79135e-19)
(13.2797 0.609093 2.84658e-18)
(9.94759 0.834779 -6.07716e-20)
(14.2582 1.44147 -2.06901e-18)
(3.01903 -6.08429 9.03945e-19)
(2.85021 0.922041 -4.71621e-20)
(8.61145 -0.648508 1.17291e-17)
(10.8682 1.04941 2.63063e-18)
(10.1132 0.565902 -8.54607e-20)
(10.9702 -1.08753 0)
(14.4088 0.139678 -5.92269e-18)
(4.86475 3.95921 0)
(11.8628 2.21588 0)
(3.13887 -1.9032 3.79488e-18)
(11.1636 0.353275 3.21066e-19)
(9.04489 1.52841 -4.82657e-20)
(9.41704 1.03866 -1.1788e-17)
(10.7049 1.7777 -4.3875e-19)
(11.3299 -0.351802 -1.55446e-18)
(-0.576188 -3.09375 -1.79968e-17)
(14.7795 0.964256 -8.48773e-18)
(10.2375 5.20122 1.11862e-18)
(8.98143 3.85603 -4.19208e-18)
(9.96982 1.34828 -5.46182e-18)
(11.584 -0.269178 4.4067e-18)
(1.95377 -1.48109 3.27059e-18)
(9.89959 1.06292 -2.62961e-18)
(1.62806 -0.414426 -1.70831e-18)
(9.4618 0.452099 2.36013e-19)
(10.5362 -3.72118 -1.72025e-19)
(9.93363 0.761804 -8.48264e-19)
(10.9584 0.96133 1.04474e-18)
(6.50401 1.48239 -1.00645e-18)
(6.7656 -0.375599 -4.74044e-18)
(10.8779 0.908386 0)
(7.34484 -0.820235 1.09249e-18)
(12.6088 -3.82434 -5.1945e-18)
(1.94117 0.329275 -9.67286e-20)
(7.98826 7.1777 3.33335e-19)
(-1.1676 1.0609 -1.23873e-17)
(10.4108 1.36957 -4.72075e-19)
(7.20515 -0.51711 -7.4067e-18)
(-0.823224 -3.2831 -9.51207e-18)
(3.61273 1.44924 0)
(11.6814 5.08038 2.76919e-18)
(10.7335 1.0398 7.03964e-19)
(2.87253 0.702969 -6.83104e-18)
(9.46662 -0.499887 1.18415e-17)
(9.78029 -0.392016 2.02579e-18)
(8.34925 0.00770882 1.75761e-17)
(10.4292 0.47864 2.19021e-18)
(-2.12122 1.30023 9.85573e-18)
(17.313 -1.67343 5.54205e-18)
(13.3769 -2.43685 2.33994e-19)
(10.4666 1.25606 -5.5688e-20)
(9.63897 2.14086 1.86687e-18)
(0.125851 -0.341155 -1.96302e-17)
(3.31319 -1.0677 0)
(4.95789 0.26892 -2.59497e-18)
(8.92453 3.4391 -1.04703e-17)
(10.6354 1.85009 7.50615e-21)
(8.92021 1.32719 -1.14319e-17)
(12.5577 3.74078 0)
(8.05542 -0.367533 0)
(11.1064 0.434837 -6.97634e-20)
(10.4156 -0.321814 -1.2412e-18)
(14.4855 9.58253 1.64181e-17)
(12.344 2.26228 3.68097e-19)
(11.7121 1.38055 8.63667e-18)
(8.56409 5.20931 1.73005e-19)
(9.56961 -0.542786 -7.50016e-18)
(3.88168 1.38667 1.32178e-17)
(10.3998 0.663171 0)
(5.24726 -4.24266 4.18921e-18)
(9.8039 0.158255 -8.96482e-18)
(10.2557 0.605385 4.60022e-19)
(-1.5614 0.290523 4.59202e-18)
(10.5394 3.99659 1.02128e-18)
(10.2024 1.00413 5.99908e-19)
(12.9784 -3.05636 -4.36269e-18)
(13.6009 3.76406 4.58713e-18)
(11.07 1.15662 -1.09765e-18)
(9.94624 0.792905 3.19773e-18)
(6.20378 1.8176 2.86433e-17)
(10.6046 1.02133 -8.95431e-20)
(10.0009 0.529109 -6.39768e-18)
(10.1555 0.519874 9.35811e-19)
(9.60346 0.404689 -2.4848e-19)
(5.76063 -0.134591 -3.64172e-19)
(9.85816 0.815544 -4.50616e-18)
(9.9355 0.779947 1.18625e-17)
(12.7831 1.87927 0)
(8.31468 1.03736 -2.32031e-18)
(9.1499 -1.23366 7.24359e-19)
(1.38488 -0.762228 -1.07685e-18)
(11.5104 0.882967 -2.08967e-18)
(11.0204 0.839142 -4.11648e-19)
(12.92 -2.44801 3.7673e-18)
(10.0259 -0.104239 -2.76359e-19)
(10.7233 0.899656 1.56413e-19)
(10.2983 1.7002 7.66029e-20)
(10.9587 1.14406 0)
(6.71266 -2.24511 -8.71741e-18)
(10.4787 0.125147 0)
(9.96669 1.34199 1.30636e-19)
(10.5583 0.866669 0)
(10.8588 0.284603 8.57585e-19)
(5.18153 0.310162 1.78737e-18)
(8.42583 1.26952 2.18725e-19)
(10.2766 0.840724 2.30059e-19)
(12.1895 -1.77065 2.64591e-18)
(8.33903 -0.295686 0)
(10.3179 0.267309 3.43362e-18)
(10.1652 -0.575209 2.48064e-19)
(10.053 0.653355 -1.57515e-18)
(7.69226 3.24194 -3.53145e-18)
(9.95292 0.836931 6.00844e-18)
(10.0354 0.516071 -5.73735e-20)
(10.2696 0.562977 -2.17725e-18)
(9.95918 0.867692 2.24233e-17)
(13.0191 1.25157 -2.04139e-18)
(10.3385 2.58825 -1.76496e-18)
(8.96004 1.29258 3.59132e-19)
(9.4768 0.384782 2.58808e-19)
(10.0405 0.726505 0)
(5.52512 4.73087 5.62045e-18)
(10.4839 0.745392 -6.86676e-19)
(10.1422 0.641557 -3.47553e-19)
(9.19471 1.04379 4.90933e-18)
(8.43452 1.6756 4.36082e-18)
(12.1052 3.40399 -3.25518e-18)
(10.0675 2.35532 7.05446e-19)
(10.7589 -0.589762 -8.2638e-19)
(9.04484 1.26205 -5.17511e-19)
(11.1333 1.56593 6.28182e-18)
(11.599 -6.26211 -5.30902e-18)
(9.42952 -1.0414 0)
(11.107 1.27918 1.74044e-20)
(10.4276 0.453286 -1.60525e-18)
(2.57643 1.49794 2.91656e-19)
(10.0833 1.77845 -4.53822e-20)
(-2.40176 0.736742 -2.73832e-18)
(11.2029 1.19174 -1.63391e-18)
(-0.437119 -2.71829 -6.24259e-20)
(8.83646 -1.72297 1.43895e-18)
(10.1498 1.23837 6.04891e-20)
(10.0166 0.693125 -1.72925e-18)
(10.6147 -1.95039 0)
(11.5433 2.1815 3.49796e-19)
(8.28067 -3.63913 -5.51039e-19)
(9.95825 0.862409 -3.6124e-17)
(7.42318 -4.50562 5.84287e-18)
(4.17742 0.35253 -1.35791e-17)
(8.78551 1.17602 -4.14079e-19)
(9.95503 0.874204 1.45422e-20)
(13.1778 -4.01214 -2.59473e-18)
(9.42862 1.84551 -4.11413e-18)
(10.0169 1.97114 -1.60059e-18)
(10.8345 0.773527 1.35261e-20)
(9.85044 1.3955 -4.61404e-18)
(9.0219 0.932789 1.11262e-17)
(10.6776 0.763909 6.25715e-19)
(-2.43977 0.845604 -6.48418e-19)
(9.97856 1.56794 -3.04515e-19)
(10.9081 0.960272 5.67797e-20)
(9.89683 1.37214 6.9199e-18)
(11.1218 0.907315 0)
(10.1141 1.6094 9.63318e-18)
(10.3306 2.49161 -2.23593e-19)
(12.3705 1.75072 -4.07659e-18)
(11.0628 -2.8213 4.88422e-19)
(10.0285 1.28065 2.49614e-19)
(9.21011 -0.429797 -2.03929e-18)
(11.0411 -0.417022 -2.38788e-18)
(-1.02726 0.251369 -2.15848e-18)
(10.0628 1.23793 2.35319e-18)
(10.4337 0.101972 4.46167e-19)
(15.8935 -1.90218 -6.24531e-18)
(11.0369 0.868599 2.47654e-19)
(10.3141 0.985779 0)
(9.9617 0.743478 8.84887e-18)
(9.26817 -2.26811 0)
(9.95289 0.705834 -1.81085e-17)
(10.3865 1.27921 -8.90286e-20)
(11.6059 0.728835 2.34733e-19)
(4.5846 4.08299 2.09794e-18)
(12.8264 -1.30238 6.59348e-18)
(10.5596 1.24429 1.30039e-18)
(7.27802 1.31647 1.44735e-18)
(10.2988 1.05239 -3.46204e-19)
(13.2956 0.146313 1.41949e-17)
(10.0068 0.667901 -1.64202e-18)
(10.5923 0.585164 -7.85828e-19)
(10.9396 -1.32428 -6.04268e-19)
(10.4805 1.49184 0)
(8.55239 -3.97228 6.23532e-19)
(-1.97045 0.237672 -5.20826e-18)
(10.5835 0.615251 9.74333e-19)
(8.31758 1.91215 1.53788e-17)
(5.31856 0.518577 6.84417e-18)
(11.9437 1.1061 0)
(9.51342 0.915807 -1.62769e-18)
(4.54128 0.606925 0)
(9.93117 0.683055 -1.90699e-18)
(9.83812 0.108878 5.21671e-18)
(8.63996 -2.85633 8.08485e-20)
(11.188 0.539812 0)
(9.80827 0.699535 7.40928e-18)
(9.73702 1.04227 -4.57654e-18)
(11.0311 1.1435 -1.64791e-18)
(7.42772 6.11605 2.98141e-18)
(7.27341 2.80989 -8.68154e-19)
(10.789 -1.73249 -5.18213e-20)
(7.16434 0.386825 5.53299e-18)
(10.1175 0.582192 1.6497e-18)
(0.965736 -0.687812 -9.21086e-19)
(12.8215 -0.405154 -9.06825e-18)
(12.4048 2.38375 -5.45658e-18)