/*--------------------------------*- C++ -*----------------------------------*\
  =========                 |
  \\      /  F ield         | OpenFOAM: The Open Source CFD Toolbox
   \\    /   O peration     | Website:  https://openfoam.org
    \\  /    A nd           | Version:  7
     \\/     M anipulation  |
\*---------------------------------------------------------------------------*/
FoamFile
{
    version     2.0;
    format      ascii;
    class       volScalarField;
    location    "300";
    object      nuTilda;
}
// * * * * * * * * * * * * * * * * * * * * * * * * * * * * * * * * * * * * * //

dimensions      [0 2 -1 0 0 0 0];

internalField   nonuniform List<scalar> 
11372
(
0.0584099
0.0191857
0.104645
0.136586
0.105107
0.0263975
0.127362
0.0512603
0.104126
0.0741714
0.132944
0.111535
0.0933808
0.138438
0.203025
0.117291
0.113753
0.122051
0.135897
0.137564
0.0963354
0.143625
0.0199032
0.013504
0.12913
0.234469
0.181579
0.135726
0.138687
0.138476
0.136338
0.139789
0.0965078
0.138742
0.0631194
0.144074
0.140785
0.110106
0.0977467
0.117725
0.0528994
0.138899
0.141365
0.108894
0.140035
0.0737038
0.130629
0.233481
0.0061879
0.130437
0.0132185
0.130283
0.060384
0.128887
0.138017
0.131747
0.107319
0.012445
0.127226
0.119235
0.0774081
0.156156
0.144302
0.0318103
0.208166
0.143821
0.107097
0.204973
0.0734845
0.0769456
0.138887
0.138012
0.141269
0.12476
0.0971677
0.139498
0.167748
0.137146
0.139943
0.0359144
0.242277
0.022366
0.00271714
0.101193
0.0135094
0.0285145
0.141777
0.114718
0.133143
0.0652686
0.141819
0.131649
0.0632314
0.111317
0.13927
0.27081
0.101864
0.271448
0.163869
0.141311
0.140264
0.12751
0.140071
0.139021
0.137719
0.0341175
0.0333593
0.139638
0.140797
0.134088
0.137334
0.131405
0.0466612
0.139494
0.261269
0.140444
0.0472616
0.140475
0.138023
0.266653
0.250666
0.0574449
0.288089
0.140185
0.120666
0.138035
0.127806
0.0945959
0.124809
0.0418733
0.0927478
0.114041
0.011605
0.0976397
0.0978024
0.14021
0.126005
0.271891
0.0205868
0.139793
0.236462
0.139693
0.0904619
0.0797541
0.104414
0.0747175
0.159877
0.134562
0.137148
0.02667
0.139237
0.062271
0.122385
0.0482248
0.140078
0.141906
0.121681
0.1317
0.265468
0.137125
0.138151
0.138899
0.0439555
0.139658
0.0157451
0.116291
0.093212
0.146631
0.140987
0.142338
0.181751
0.146742
0.0855001
0.0955654
0.0944162
0.0569932
0.128767
0.233233
0.0420785
0.139904
0.102208
0.13702
0.0486437
0.084837
0.18908
0.0275378
0.104024
0.0420482
0.128962
0.0160287
0.136242
0.138963
0.128742
0.120961
0.104076
0.114904
0.21098
0.138345
0.0761266
0.117985
0.138709
0.134396
0.136187
0.290059
0.139912
0.135441
0.140984
0.129056
0.12945
0.126114
0.0293354
0.13231
0.110973
0.137569
0.139265
0.111363
0.138645
0.137299
0.137094
0.112867
0.0647105
0.13779
0.0208477
0.00122988
0.139496
0.092909
0.0013822
0.14146
0.139522
0.132757
0.131902
0.138164
0.101931
0.14117
0.0997689
0.054909
0.0755934
0.257021
0.11744
0.108393
0.13993
0.042906
0.11422
0.140791
0.105283
0.136985
0.136883
0.101496
0.136797
0.0519488
0.129637
0.144859
0.0128845
0.112202
0.0317561
0.135357
0.137261
0.140511
0.129929
0.138071
0.0711068
0.139235
0.220596
0.138391
0.0955215
0.118379
0.137871
0.191983
0.00362826
0.120348
0.00269486
0.0860087
0.114759
0.105276
0.104635
0.0858983
0.137987
0.141369
0.133541
0.217511
0.112307
0.130636
0.136097
0.136316
0.0370149
0.141277
0.2012
0.00175191
0.143839
0.21182
0.157803
0.139536
0.184252
0.141039
0.0966703
0.139322
0.134661
0.140182
0.113535
0.0562162
0.140012
0.0760884
0.0556253
0.237053
0.137322
0.111137
0.0334748
0.127995
0.140016
0.132355
0.0512983
0.139993
0.276808
0.0193013
0.140698
0.134656
0.16249
0.110921
0.114546
0.0290552
0.124849
0.100589
0.100943
0.137461
0.138579
0.0835636
0.0786069
0.118827
0.0942831
0.127306
0.273813
0.138451
0.0868444
0.0556552
0.096105
0.100518
0.142914
0.0517387
0.13366
0.123885
0.165129
0.186838
0.135001
0.136759
0.14183
0.097061
0.142323
0.132868
0.122459
0.139957
0.0179731
0.110342
0.131208
0.119894
0.136607
0.0441931
0.110204
0.131993
0.091542
0.13931
0.142927
0.122381
0.133117
0.161094
0.140666
0.0418245
0.107856
0.0943125
0.125447
0.137361
0.137953
0.112069
0.0707857
0.155649
0.116827
0.123884
0.111892
0.13913
0.0333386
0.096906
0.140359
0.138072
0.132442
0.113825
0.136186
0.0554227
0.111375
0.129375
0.0905852
0.134999
0.0857339
0.0220188
0.140282
0.130341
0.140743
0.125611
0.144031
0.0138319
0.0640409
0.0795628
0.133681
0.141541
0.11549
0.13152
0.124004
0.142561
0.065115
0.2369
0.130351
0.132839
0.140044
0.283732
0.138792
0.00970527
0.039265
0.012687
0.0343671
0.121296
0.140618
0.139132
0.262967
0.14239
0.140223
0.0163237
0.137022
0.140064
0.0167346
0.102716
0.132278
0.140014
0.138332
0.141214
0.141617
0.00321485
0.251297
0.140725
0.280888
0.13778
0.0184292
0.120951
0.0931322
0.13836
0.140139
0.130195
0.140966
0.134301
0.00290267
0.138686
0.0220069
0.102703
0.141802
0.079979
0.127897
0.129959
0.103942
0.105502
0.242459
0.0453927
0.138539
0.130224
0.259884
0.117054
0.0737538
0.112361
0.162671
0.0611629
0.129308
0.0480161
0.2544
0.107578
0.12562
0.12674
0.137915
0.0762192
0.088382
0.108313
0.101792
0.143471
0.141589
0.151129
0.13762
0.0402429
0.0106934
0.140655
0.141268
0.00510923
0.26049
0.0914618
0.137883
0.140891
0.0295016
0.143915
0.13916
0.145041
0.120752
0.121382
0.125766
0.142862
0.138309
0.139461
0.14016
0.0275032
0.0588903
0.132362
0.134383
0.133786
0.011129
0.140616
0.0192163
0.111467
0.0592855
0.0964295
0.115377
0.139939
0.140074
0.139975
0.131879
0.110764
0.125248
0.123006
0.0807774
0.140836
0.289813
0.129244
0.12941
0.138337
0.0515933
0.140967
0.0250281
0.124526
0.133866
0.140839
0.136197
0.116777
0.142181
0.168463
0.123547
0.141818
0.0660699
0.137592
0.129207
0.0310162
0.0988969
0.131249
0.118552
0.125499
0.125574
0.120845
0.0597347
0.0408984
0.140924
0.122117
0.0884104
0.138751
0.135561
0.140198
0.0992566
0.140011
0.132838
0.266411
0.139745
0.140365
0.142995
0.0968612
0.254524
0.131023
0.0984442
0.0920346
0.100951
0.290553
0.141521
0.108273
0.140276
0.0132881
0.139494
0.121897
0.0571251
0.01395
0.141317
0.136687
0.238181
0.1238
0.0375884
0.165405
0.102663
0.140299
0.0157543
0.141741
0.0018069
0.141896
0.235402
0.129661
0.287654
0.00884354
0.280473
0.12375
0.113656
0.111625
0.0402523
0.040006
0.110369
0.106804
0.140307
0.00764594
0.104958
0.1827
0.143814
0.290657
0.140805
0.110583
0.0397346
0.141992
0.138286
0.140338
0.048269
0.0792576
0.0415605
0.116804
0.10223
0.211278
0.0360465
0.0685745
0.129834
0.129976
0.134584
0.135023
0.0840262
0.102793
0.0518843
0.133984
0.0770947
0.138977
0.103411
0.141005
0.0892548
0.0846101
0.0333814
0.14003
0.124401
0.127051
0.138946
0.119298
0.146233
0.140827
0.137688
0.141143
0.130627
0.0712998
0.0392239
0.137817
0.139346
0.0831631
0.136018
0.0119118
0.14054
0.181769
0.14002
0.0172576
0.134868
0.015376
0.146786
0.133527
0.134795
0.0298426
0.265585
0.0261927
0.0786527
0.0943985
0.129359
0.272372
0.0865634
0.0144217
0.138148
0.137917
0.271334
0.26907
0.142271
0.140484
0.133742
0.0793556
0.13284
0.128788
0.112836
0.0514556
0.0502553
0.141744
0.141604
0.0886859
0.126307
0.0733128
0.140172
0.140139
0.140295
0.123629
0.11895
0.103916
0.108495
0.139393
0.102157
0.142327
0.00122999
0.112227
0.0797152
0.096644
0.13102
0.14045
0.140288
0.140329
0.136727
0.138678
0.0350786
0.0256261
0.140371
0.25195
0.113015
0.135004
0.141636
0.104965
0.120624
0.137658
0.055819
0.117656
0.123723
0.106378
0.0487734
0.140368
0.141306
0.111459
0.138859
0.125447
0.0253649
0.140575
0.099028
0.122925
0.137319
0.0909616
0.107223
0.0857179
0.135629
0.14209
0.119161
0.0375446
0.120161
0.111243
0.0898938
0.126515
0.129816
0.0442814
0.205626
0.208183
0.0317758
0.0311082
0.0840925
0.125654
0.0895815
0.139117
0.133461
0.140461
0.201039
0.245059
0.10804
0.031617
0.0724533
0.137344
0.138063
0.208488
0.1378
0.143764
0.0828435
0.27162
0.00141003
0.140286
0.0619138
0.14227
0.113692
0.139619
0.0324774
0.109157
0.117635
0.140052
0.248845
0.0138601
0.132922
0.0206642
0.126969
0.0242098
0.139775
0.0120857
0.0132103
0.0566198
0.126584
0.139699
0.140636
0.125806
0.0563731
0.101401
0.118853
0.053888
0.134571
0.0809149
0.13564
0.136388
0.128696
0.00773503
0.0186128
0.0992207
0.116291
0.140178
0.0405133
0.108202
0.14016
0.0194586
0.0979568
0.100832
0.140092
0.139445
0.254127
0.11451
0.140565
0.187137
0.0841137
0.00862839
0.0643154
0.0113766
0.140996
0.11776
0.0140859
0.0708274
0.0901176
0.141348
0.0215437
0.131325
0.133275
0.127556
0.140903
0.0665077
0.0132731
0.0884052
0.121724
0.133268
0.0659556
0.243963
0.287487
0.0801027
0.136154
0.132312
0.0925156
0.124298
0.0970854
0.134426
0.0104189
0.105468
0.108367
0.0989764
0.13137
0.0645708
0.126282
0.0649811
0.137098
0.141128
0.0206559
0.114259
0.142344
0.0889301
0.0645264
0.131086
0.14012
0.109728
0.143027
0.140196
0.14069
0.0937014
0.279038
0.138538
0.140119
0.0849717
0.129228
0.125361
0.231081
0.111269
0.127229
0.0957471
0.068409
0.143039
0.138738
0.132387
0.1029
0.13871
0.107745
0.146479
0.137961
0.288734
0.140245
0.141786
0.11095
0.134223
0.140005
0.132292
0.140464
0.11558
0.14001
0.108212
0.140938
0.139948
0.0482254
0.0459857
0.0980127
0.0919206
0.140429
0.128037
0.141681
0.140993
0.134334
0.128315
0.104957
0.132521
0.130894
0.0989664
0.105667
0.0559857
0.127506
0.135723
0.140847
0.247033
0.137652
0.131686
0.127113
0.0322376
0.120573
0.123388
0.140367
0.119713
0.12467
0.0992614
0.139906
0.0830683
0.0183298
0.136165
0.13983
0.073948
0.13399
0.135735
0.126391
0.139283
0.133419
0.131192
0.124431
0.13913
0.140201
0.139812
0.129014
0.139226
0.130868
0.0722305
0.109409
0.114595
0.0650086
0.130548
0.1838
0.140649
0.138522
0.0363496
0.129242
0.142467
0.140187
0.117154
0.140169
0.118816
0.127434
0.0732246
0.105611
0.123212
0.233449
0.143347
0.0937517
0.140369
0.140986
0.123919
0.140152
0.0964122
0.0804332
0.141091
0.126769
0.10018
0.114177
0.136235
0.283365
0.140029
0.137099
0.109538
0.101606
0.138277
0.138277
0.132678
0.0791341
0.156875
0.121068
0.120139
0.140616
0.22461
0.108181
0.103817
0.138702
0.134924
0.135952
0.0972441
0.119551
0.140659
0.057519
0.13994
0.121734
0.0939198
0.141261
0.129204
0.148052
0.0433301
0.109324
0.134575
0.123042
0.114294
0.139933
0.0814342
0.140168
0.0939442
0.140131
0.138737
0.0295236
0.251625
0.131013
0.134292
0.131663
0.250503
0.270956
0.138079
0.259691
0.139457
0.113574
0.195949
0.141171
0.128916
0.117365
0.25456
0.135958
0.140347
0.0968353
0.0580102
0.0949856
0.107702
0.0737429
0.141048
0.0954156
0.143646
0.140183
0.129221
0.133898
0.137499
0.18379
0.0415161
0.140231
0.136386
0.115641
0.136644
0.0860266
0.119195
0.139813
0.0373694
0.0494693
0.14
0.126088
0.0985296
0.28929
0.0616112
0.00150075
0.131761
0.121008
0.108232
0.0598541
0.147494
0.092211
0.107637
0.142396
0.058622
0.13041
0.113798
0.118061
0.134135
0.132723
0.0731041
0.140399
0.134639
0.124611
0.0360857
0.130568
0.0433037
0.14019
0.0801772
0.125596
0.037453
0.0385419
0.134573
0.125089
0.139863
0.0942774
0.108426
0.0623088
0.269719
0.196461
0.289922
0.0668032
0.139043
0.136562
0.0105117
0.0734788
0.00560141
0.0689053
0.127433
0.0953267
0.1353
0.12001
0.139951
0.128331
0.137074
0.275938
0.0296865
0.13676
0.0730591
0.144198
0.137112
0.127529
0.0410083
0.0983097
0.143379
0.140066
0.142092
0.120068
0.138529
0.135172
0.223651
0.2187
0.140795
0.0171441
0.138638
0.0638289
0.131573
0.250318
0.11809
0.129746
0.142595
0.0701627
0.01492
0.142823
0.00768306
0.003483
0.0734734
0.141526
0.149039
0.152745
0.139842
0.137909
0.137981
0.0736827
0.125329
0.140278
0.118196
0.139997
0.14004
0.0216502
0.181391
0.124812
0.140294
0.0799223
0.141619
0.119408
0.135778
0.0921058
0.0862707
0.105169
0.130335
0.0964021
0.135357
0.125889
0.14377
0.111438
0.125918
0.128764
0.131173
0.0957991
0.129565
0.132886
0.11124
0.0948134
0.0829188
0.013482
0.14265
0.133484
0.135235
0.14036
0.0534543
0.0679346
0.140453
0.0203072
0.131054
0.248597
0.0698196
0.160207
0.103777
0.240303
0.114574
0.0842427
0.14077
0.139488
0.0949428
0.130338
0.0581501
0.0379277
0.140082
0.138142
0.143241
0.232217
0.128097
0.0986714
0.084616
0.0861818
0.138216
0.0848446
0.13706
0.010974
0.115944
0.0310522
0.0815093
0.142555
0.141238
0.285269
0.221589
0.102509
0.0606337
0.137811
0.226334
0.129936
0.0340096
0.0184067
0.235948
0.0463448
0.140703
0.0539105
0.0688701
0.139348
0.138587
0.00619706
0.137646
0.14373
0.141829
0.0948137
0.137721
0.00130947
0.136055
0.140824
0.133589
0.0794197
0.0932985
0.140011
0.0988256
0.125262
0.120226
0.0414661
0.224446
0.140309
0.0657176
0.09455
0.0878231
0.10936
0.0940369
0.136794
0.278276
0.139557
0.016141
0.135145
0.279511
0.117126
0.10716
0.140568
0.0135586
0.0972765
0.130565
0.0709655
0.00575141
0.121558
0.13139
0.0674925
0.138975
0.136367
0.141477
0.139943
0.117162
0.0807667
0.138831
0.0894102
0.0842349
0.136253
0.0244995
0.140195
0.108052
0.0942819
0.141619
0.285588
0.136156
0.0738347
0.140219
0.0788026
0.241668
0.136731
0.140692
0.140099
0.0859945
0.127716
0.277626
0.134636
0.141081
0.140873
0.138415
0.121651
0.139939
0.114799
0.144643
0.0160973
0.143227
0.141574
0.0149165
0.140191
0.128274
0.135169
0.0232678
0.115331
0.0406336
0.0995753
0.142659
0.106842
0.114378
0.145676
0.0240566
0.079698
0.137759
0.106103
0.108847
0.0339625
0.138797
0.0923222
0.0710986
0.132403
0.0953256
0.124357
0.141156
0.244835
0.135639
0.0876977
0.288018
0.00202341
0.12648
0.14168
0.271774
0.139578
0.0182903
0.133479
0.0813212
0.112603
0.139865
0.141125
0.125559
0.132169
0.14039
0.119425
0.290239
0.146266
0.079205
0.222397
0.0558408
0.13882
0.0603109
0.134814
0.133952
0.0511343
0.136592
0.140154
0.116635
0.0881168
0.140803
0.116463
0.140677
0.11111
0.132631
0.0827686
0.122988
0.10862
0.141052
0.0472323
0.110862
0.0689258
0.134439
0.00254891
0.277412
0.090244
0.113403
0.135552
0.0571257
0.112681
0.182672
0.0327079
0.0221338
0.139973
0.0848069
0.0184941
0.126543
0.134937
0.272215
0.118359
0.0367665
0.00955617
0.00479198
0.103691
0.138857
0.129824
0.14064
0.141576
0.1386
0.00785168
0.127933
0.0986883
0.127233
0.0946636
0.187776
0.0120281
0.138378
0.0281193
0.138268
0.289779
0.136974
0.101691
0.0916379
0.139458
0.139597
0.138028
0.139254
0.0156572
0.0832057
0.126612
0.0796398
0.0329166
0.135843
0.135645
0.139953
0.133003
0.0348964
0.0915977
0.130651
0.289531
0.140157
0.13725
0.0858991
0.141739
0.140682
0.14773
0.139641
0.0211432
0.122592
0.122568
0.177586
0.113663
0.247718
0.0182621
0.141505
0.125866
0.0678716
0.139464
0.131329
0.138354
0.106688
0.111119
0.133135
0.26335
0.252242
0.129922
0.100563
0.138724
0.0492268
0.0245787
0.0873158
0.0168453
0.122883
0.070492
0.00420439
0.140607
0.1181
0.140017
0.175994
0.0694398
0.13176
0.141114
0.10584
0.0689677
0.0623214
0.0692841
0.138048
0.134034
0.109706
0.243792
0.0235371
0.127637
0.00316075
0.140607
0.286639
0.0820059
0.288119
0.0953266
0.109692
0.0775291
0.120576
0.140028
0.0280501
0.101542
0.0817305
0.12945
0.140684
0.137212
0.140156
0.13669
0.124239
0.0976777
0.11983
0.14218
0.135382
0.130965
0.145868
0.140934
0.129073
0.137319
0.107052
0.0816881
0.0150838
0.0885896
0.1412
0.0916168
0.0519253
0.00728531
0.112165
0.0981549
0.0753014
0.120101
0.140798
0.140619
0.0204658
0.236892
0.125857
0.124989
0.119026
0.140423
0.117196
0.136359
0.139049
0.181811
0.0997132
0.139738
0.0057597
0.286741
0.0814305
0.137341
0.112754
0.141497
0.0575527
0.137345
0.140699
0.140642
0.287035
0.139374
0.0298824
0.120232
0.140118
0.0134948
0.0112903
0.111549
0.141914
0.139906
0.140416
0.139864
0.144175
0.142039
0.0828589
0.0178313
0.0963756
0.143346
0.288172
0.018194
0.121334
0.10368
0.115253
0.137767
0.140578
0.137975
0.0717033
0.0648184
0.0128743
0.252465
0.140785
0.178464
0.0981464
0.140422
0.270753
0.140441
0.102864
0.1402
0.243915
0.0641868
0.0847839
0.140584
0.137293
0.131297
0.136849
0.105559
0.140239
0.10747
0.140307
0.120748
0.0937335
0.141358
0.140167
0.117311
0.127538
0.0454182
0.108665
0.126895
0.109993
0.217614
0.137343
0.140176
0.0524404
0.141033
0.124039
0.117017
0.138066
0.14097
0.117945
0.12831
0.141362
0.0900511
0.140324
0.137166
0.0119828
0.125597
0.101356
0.0167259
0.139951
0.194339
0.137601
0.139587
0.141976
0.00246089
0.140007
0.12568
0.140069
0.137241
0.158252
0.138681
0.0684824
0.136414
0.0240097
0.107981
0.139436
0.0215271
0.0433127
0.111876
0.140629
0.094895
0.279498
0.120772
0.141518
0.105209
0.111489
0.104163
0.139871
0.117358
0.0667603
0.0493327
0.109474
0.142464
0.135968
0.127057
0.0407102
0.0543685
0.138739
0.118248
0.125337
0.135711
0.26841
0.137784
0.107465
0.142686
0.139658
0.142277
0.143167
0.0628876
0.135283
0.124865
0.213124
0.102583
0.141172
0.0835262
0.2502
0.0185655
0.272837
0.140044
0.140259
0.058966
0.122395
0.113885
0.134993
0.14169
0.0119536
0.101965
0.141057
0.115634
0.0296557
0.268367
0.140021
0.134884
0.139577
0.0122467
0.0894762
0.154569
0.117613
0.0867609
0.11743
0.111865
0.128022
0.134512
0.0201388
0.0128737
0.146026
0.140149
0.110023
0.114971
0.114462
0.0878584
0.208446
0.140383
0.122586
0.132217
0.123974
0.0885089
0.139538
0.141036
0.125804
0.275574
0.131564
0.139996
0.151078
0.190111
0.131663
0.138712
0.143322
0.182354
0.0912479
0.121641
0.0952542
0.142457
0.139269
0.0942509
0.0159959
0.0839564
0.141565
0.134557
0.0596522
0.135446
0.139654
0.128886
0.131283
0.139757
0.125336
0.140312
0.129919
0.0529024
0.215794
0.011717
0.00914567
0.268742
0.122763
0.0439641
0.0802811
0.143463
0.13022
0.141078
0.140465
0.280055
0.139367
0.0333556
0.142315
0.19958
0.137454
0.125863
0.132174
0.112535
0.11043
0.135625
0.127937
0.0765534
0.0983397
0.136677
0.107584
0.10099
0.141891
0.128333
0.147951
0.13455
0.0290991
0.139983
0.137376
0.0849084
0.120694
0.0108283
0.0722974
0.134476
0.0362258
0.141336
0.143707
0.14334
0.0670105
0.0557647
0.140116
0.130085
0.0177565
0.0953509
0.134104
0.146235
0.11384
0.0682796
0.2319
0.112901
0.00729477
0.278015
0.113183
0.159806
0.115611
0.124519
0.140195
0.139375
0.225404
0.103545
0.140602
0.06061
0.0575187
0.0707621
0.142764
0.155341
0.123094
0.266089
0.0935757
0.140918
0.138337
0.020869
0.0486951
0.139174
0.127953
0.064486
0.086117
0.131465
0.132056
0.140181
0.0918868
0.140756
0.138919
0.125285
0.140876
0.131215
0.136211
0.0204667
0.0351063
0.126293
0.124033
0.140228
0.138205
0.0048868
0.140898
0.0286874
0.289116
0.138838
0.13761
0.140712
0.139208
0.0908928
0.13661
0.0159888
0.0601953
0.0455867
0.140482
0.117178
0.0341724
0.140942
0.130486
0.137194
0.119383
0.141668
0.135847
0.0432416
0.120114
0.0402521
0.149353
0.0587248
0.105161
0.140152
0.0181484
0.140126
0.141037
0.133842
0.120014
0.106817
0.0452608
0.138628
0.0765444
0.111545
0.116454
0.0313367
0.127073
0.218617
0.0503058
0.0548852
0.111781
0.113841
0.0763603
0.141033
0.0394165
0.128273
0.122521
0.0129263
0.140527
0.00964065
0.140463
0.140781
0.139235
0.129256
0.133218
0.135888
0.133759
0.139918
0.135474
0.120498
0.139091
0.0979162
0.11432
0.108031
0.0731874
0.267236
0.067744
0.140765
0.137892
0.138177
0.124398
0.11621
0.0510638
0.13786
0.0230934
0.140806
0.140843
0.116559
0.138963
0.139072
0.18278
0.0878852
0.140135
0.0820894
0.116811
0.110689
0.0669033
0.169059
0.00636234
0.0501804
0.106426
0.133186
0.118016
0.138623
0.138011
0.121009
0.0114387
0.138465
0.123824
0.0279942
0.192302
0.107008
0.198992
0.16719
0.138403
0.119654
0.140562
0.133604
0.011692
0.0439431
0.0437711
0.0609684
0.140452
0.141644
0.141244
0.0146377
0.0205348
0.138926
0.0742897
0.140773
0.0913223
0.276937
0.124663
0.13741
0.160121
0.139709
0.124333
0.075586
0.1412
0.0732984
0.0887403
0.09518
0.0576088
0.105947
0.11699
0.140103
0.0496171
0.0851937
0.139927
0.130681
0.137339
0.133257
0.139257
0.197508
0.0821644
0.00910288
0.143038
0.0660986
0.0242846
0.138376
0.141223
0.128155
0.130824
0.0228812
0.0799056
0.0260268
0.0176551
0.213815
0.109654
0.0786392
0.137793
0.0159655
0.132942
0.0135307
0.141619
0.00302645
0.0892576
0.0665264
0.142663
0.14005
0.09906
0.00789616
0.0975092
0.140723
0.139021
0.124155
0.159265
0.140669
0.129059
0.0887178
0.139028
0.0635489
0.120373
0.134503
0.121714
0.108718
0.252966
0.140817
0.118752
0.117316
0.13838
0.136163
0.141988
0.134136
0.140577
0.121301
0.141937
0.0425473
0.135697
0.135753
0.0137494
0.140204
0.13976
0.261145
0.134225
0.123036
0.141781
0.0822958
0.0386844
0.164587
0.115378
0.0622386
0.0691356
0.140327
0.027579
0.140967
0.116427
0.290081
0.142314
0.110766
0.138535
0.147358
0.125608
0.0439624
0.211081
0.0850937
0.0710806
0.118584
0.0895092
0.129974
0.103494
0.0973815
0.125405
0.0198181
0.117326
0.126473
0.129165
0.107331
0.119135
0.140907
0.121342
0.0125268
0.161965
0.0714752
0.114965
0.107156
0.138897
0.10918
0.236137
0.134998
0.143395
0.0136574
0.130913
0.104658
0.101822
0.0606472
0.140829
0.120053
0.118279
0.0417335
0.140094
0.123218
0.135917
0.0973836
0.213058
0.138278
0.0369063
0.118774
0.281784
0.212975
0.0592971
0.132735
0.136869
0.113823
0.108507
0.140518
0.14131
0.0861194
0.121679
0.288772
0.137651
0.142193
0.088114
0.28596
0.129221
0.01106
0.142884
0.130511
0.0736926
0.129657
0.015969
0.133047
0.093886
0.0211147
0.137669
0.139247
0.0512314
0.128616
0.143672
0.140061
0.110124
0.127962
0.142335
0.141241
0.0974326
0.142684
0.136073
0.283944
0.117769
0.140713
0.139497
0.128149
0.145508
0.141141
0.143623
0.104413
0.113643
0.121942
0.117158
0.0436855
0.0827784
0.140678
0.110296
0.133903
0.140232
0.148617
0.0946601
0.0441675
0.0916037
0.128165
0.228799
0.102855
0.14309
0.0956116
0.0170724
0.137866
0.136112
0.111481
0.0985405
0.0129715
0.0536084
0.00432578
0.0538401
0.141123
0.137383
0.140162
0.056084
0.13424
0.0532429
0.136509
0.134205
0.136883
0.142939
0.138486
0.137551
0.135634
0.266372
0.140275
0.126198
0.0226955
0.142567
0.138019
0.230844
0.103219
0.142375
0.102503
0.14017
0.0960831
0.137105
0.0798078
0.140155
0.0254604
0.127279
0.137288
0.251147
0.141807
0.276282
0.279113
0.0988934
0.103503
0.11203
0.13376
0.113302
0.140446
0.122141
0.11463
0.126838
0.140266
0.131025
0.140187
0.0717553
0.033697
0.0888972
0.237166
0.140712
0.0834328
0.140435
0.133278
0.00878546
0.279049
0.0978488
0.0898872
0.0989814
0.139101
0.124576
0.135884
0.123331
0.132435
0.110387
0.138198
0.140125
0.118889
0.162272
0.143667
0.128052
0.11988
0.131343
0.0457622
0.135131
0.17891
0.112696
0.114884
0.0205769
0.128888
0.0705962
0.140843
0.141679
0.0240882
0.11512
0.124837
0.144624
0.0415031
0.135834
0.138787
0.131725
0.114749
0.0919671
0.142171
0.0745348
0.14376
0.00957612
0.0167353
0.068906
0.0699071
0.140438
0.133439
0.142778
0.125674
0.00889029
0.139486
0.141902
0.130129
0.13784
0.113712
0.137212
0.0349969
0.134944
0.140327
0.280912
0.276718
0.124866
0.140306
0.107052
0.140424
0.131896
0.128479
0.0802271
0.138205
0.141133
0.139381
0.114921
0.138162
0.0207671
0.0566147
0.0859321
0.140343
0.141284
0.0534231
0.118735
0.0953751
0.130509
0.228983
0.0206733
0.0634588
0.130618
0.116944
0.140567
0.030371
0.136893
0.132202
0.279173
0.0788681
0.126439
0.104114
0.102661
0.0592683
0.0751216
0.141784
0.00787518
0.109819
0.290093
0.183349
0.139883
0.107827
0.140776
0.138073
0.284464
0.0293075
0.251021
0.141573
0.112451
0.138617
0.0432455
0.100934
0.136192
0.00801065
0.143709
0.136485
0.265053
0.141116
0.0210342
0.0926928
0.0382816
0.135953
0.141508
0.130176
0.0108138
0.235465
0.00680252
0.119029
0.101815
0.128134
0.284875
0.116149
0.139443
0.110007
0.136845
0.135939
0.139231
0.0198243
0.0824312
0.142108
0.138557
0.117825
0.140238
0.12833
0.141832
0.107256
0.138535
0.140394
0.123541
0.0262859
0.100329
0.1398
0.144163
0.108872
0.0995451
0.143637
0.105386
0.104645
0.0320001
0.130427
0.0414266
0.03006
0.0636366
0.124592
0.0892321
0.265905
0.0914827
0.0857916
0.0622104
0.0113042
0.122413
0.137972
0.0776062
0.0992044
0.128695
0.0850168
0.13958
0.137003
0.13478
0.113383
0.0395814
0.140554
0.135393
0.138072
0.140725
0.141185
0.141334
0.042529
0.0812114
0.133754
0.132236
0.106731
0.137833
0.123658
0.0131872
0.119048
0.140238
0.135594
0.0927412
0.138758
0.172424
0.013167
0.116482
0.285669
0.130852
0.0438122
0.138741
0.122308
0.202491
0.0103497
0.117715
0.0433033
0.287971
0.140835
0.101816
0.11149
0.132252
0.128868
0.130883
0.0140214
0.10413
0.140825
0.140234
0.140209
0.135598
0.0885017
0.009886
0.130958
0.134765
0.137322
0.140513
0.145295
0.0348398
0.0478054
0.109451
0.23315
0.13815
0.0787749
0.0617965
0.265035
0.274257
0.0302766
0.028919
0.142689
0.137301
0.118569
0.140057
0.287883
0.137505
0.00877856
0.0499257
0.108452
0.0364576
0.135125
0.140361
0.0737577
0.141579
0.120472
0.038788
0.111387
0.139198
0.131644
0.203848
0.134782
0.0828877
0.124251
0.135936
0.140006
0.122947
0.0500287
0.124493
0.141724
0.141044
0.110397
0.140733
0.275671
0.113171
0.0878454
0.0150912
0.138811
0.121439
0.104674
0.139953
0.127347
0.0985414
0.123947
0.0231266
0.123803
0.120098
0.135176
0.136162
0.132921
0.103932
0.251197
0.179749
0.138081
0.0388407
0.121193
0.242224
0.138049
0.129398
0.106998
0.118587
0.0892462
0.118284
0.0921906
0.135456
0.08906
0.134452
0.139197
0.0232377
0.104626
0.13182
0.0120214
0.140817
0.131154
0.137074
0.113057
0.0636426
0.138477
0.113663
0.133014
0.135132
0.14535
0.101367
0.105462
0.114449
0.140433
0.135206
0.0644808
0.0274847
0.125156
0.11155
0.0367989
0.13818
0.154115
0.133586
0.0347709
0.0389812
0.134452
0.130559
0.269397
0.0667955
0.140241
0.14001
0.120932
0.12673
0.20444
0.140544
0.142225
0.137577
0.138092
0.0726827
0.243964
0.138102
0.137186
0.11211
0.139617
0.0934367
0.290794
0.0642354
0.133439
0.0230159
0.0177411
0.143375
0.0944657
0.140256
0.200119
0.0766193
0.101143
0.139772
0.140636
0.133098
0.0521096
0.131459
0.0211978
0.0426351
0.118916
0.0125739
0.247764
0.141007
0.113663
0.140151
0.0344268
0.115674
0.143281
0.140457
0.193619
0.140699
0.0449494
0.131407
0.109145
0.0904131
0.136754
0.130446
0.0357839
0.0633776
0.0673333
0.0765297
0.0994136
0.082221
0.227857
0.140065
0.126109
0.134923
0.122053
0.111978
0.135789
0.128955
0.13346
0.127001
0.142127
0.0494911
0.0774495
0.138222
0.142956
0.140082
0.130455
0.101416
0.137488
0.218403
0.107438
0.00252692
0.137283
0.138006
0.104502
0.0953397
0.134052
0.115274
0.0340492
0.086782
0.140254
0.134678
0.142461
0.143905
0.102521
0.135782
0.0672924
0.13205
0.132167
0.0602318
0.0773321
0.1384
0.142776
0.0670027
0.123114
0.0419601
0.140282
0.0384499
0.110297
0.276859
0.139944
0.0532479
0.140977
0.107076
0.0300743
0.11349
0.273165
0.141938
0.0109604
0.130519
0.133875
0.139354
0.120837
0.142022
0.113809
0.113349
0.106471
0.120744
0.114076
0.0674273
0.137168
0.11307
0.136195
0.0583807
0.093876
0.137853
0.160471
0.10553
0.140478
0.140857
0.0126442
0.0837113
0.13339
0.058909
0.109997
0.141931
0.137804
0.129225
0.0718471
0.141388
0.0715926
0.0604723
0.0242481
0.174997
0.141302
0.0751418
0.0695108
0.0517065
0.129005
0.0318974
0.103656
0.13775
0.135933
0.140198
0.132777
0.0943187
0.075687
0.0657434
0.135932
0.0767296
0.197955
0.0630956
0.142357
0.0870142
0.0997809
0.13418
0.140356
0.136473
0.258884
0.138621
0.139392
0.126773
0.138149
0.0174005
0.123279
0.115416
0.0911443
0.132892
0.12545
0.115245
0.13209
0.283239
0.105677
0.124157
0.12126
0.28988
0.130332
0.0695381
0.27466
0.129142
0.191185
0.283796
0.205557
0.141261
0.228191
0.141521
0.138449
0.120488
0.113975
0.139361
0.140243
0.289576
0.129405
0.140295
0.137656
0.140355
0.028049
0.123024
0.136719
0.0919825
0.121029
0.133955
0.141154
0.134515
0.140583
0.0877104
0.140039
0.265163
0.140215
0.140034
0.0246369
0.0203587
0.140105
0.130189
0.140195
0.101738
0.14449
0.0364658
0.135897
0.141652
0.140405
0.142087
0.0406775
0.131497
0.119183
0.139295
0.154627
0.140023
0.0649838
0.146787
0.0199914
0.0429098
0.168783
0.209862
0.111875
0.00561352
0.140605
0.112706
0.0951054
0.125747
0.141269
0.139764
0.13929
0.0601147
0.287921
0.123346
0.129126
0.23304
0.138438
0.138617
0.139872
0.130098
0.0242319
0.0379029
0.122241
0.00623072
0.102776
0.12903
0.120405
0.13975
0.142983
0.139811
0.128025
0.0595171
0.0319743
0.139018
0.140072
0.0355588
0.151081
0.138856
0.141779
0.243793
0.134837
0.137102
0.0748658
0.132973
0.141991
0.164329
0.121355
0.0603453
0.125524
0.120284
0.0162377
0.0474647
0.0651195
0.0216531
0.138455
0.138835
0.0426323
0.0122299
0.0772945
0.19356
0.106024
0.130298
0.118642
0.124971
0.00952928
0.143948
0.134081
0.0251318
0.140118
0.124109
0.141132
0.254085
0.24874
0.0413258
0.140978
0.131744
0.107789
0.0190285
0.200415
0.135321
0.142594
0.14168
0.0573691
0.136517
0.122083
0.137865
0.0611955
0.0634985
0.108576
0.174593
0.138659
0.140406
0.137194
0.140334
0.0791864
0.135515
0.131571
0.0734177
0.12573
0.114208
0.00621086
0.143252
0.139101
0.121879
0.034014
0.138983
0.140552
0.0017558
0.127324
0.015869
0.0894806
0.0858075
0.111099
0.139929
0.128977
0.134455
0.133968
0.109061
0.13337
0.0661253
0.115447
0.104584
0.1322
0.139207
0.139378
0.129367
0.118933
0.115729
0.0993218
0.118609
0.0199078
0.00432165
0.131531
0.121565
0.0818503
0.108049
0.0291976
0.0296976
0.141201
0.0397456
0.0781441
0.104595
0.141547
0.140038
0.197416
0.139777
0.00796237
0.0408924
0.049417
0.272643
0.100848
0.136034
0.140082
0.273808
0.0886062
0.13969
0.139801
0.140029
0.141323
0.140092
0.133464
0.285837
0.0848031
0.0442247
0.124496
0.116382
0.129365
0.140884
0.104831
0.140168
0.210374
0.13987
0.0448214
0.194803
0.269471
0.137887
0.104133
0.187733
0.141906
0.163203
0.0944665
0.121206
0.139637
0.123005
0.146752
0.00937355
0.140381
0.103433
0.0618281
0.108858
0.14118
0.139926
0.132474
0.104255
0.128945
0.14072
0.138121
0.101534
0.137121
0.21615
0.100728
0.12008
0.114062
0.12631
0.193375
0.272702
0.122793
0.14125
0.122399
0.232547
0.135863
0.0525481
0.0462859
0.101117
0.101106
0.125897
0.127581
0.0952445
0.0800039
0.0238289
0.0725856
0.128775
0.112003
0.0870748
0.140493
0.142521
0.0629136
0.118246
0.0957279
0.108162
0.131469
0.0643602
0.118445
0.0627172
0.140854
0.140174
0.129719
0.0114482
0.143102
0.123441
0.140618
0.114613
0.114678
0.139995
0.195958
0.250977
0.187745
0.139969
0.122964
0.13034
0.136795
0.140101
0.138383
0.122958
0.139969
0.0576248
0.127905
0.117173
0.129137
0.125731
0.139781
0.00200328
0.119129
0.14031
0.1403
0.0467837
0.139696
0.0989386
0.140947
0.0688273
0.223147
0.0476943
0.0958324
0.138275
0.230695
0.0451218
0.135319
0.137373
0.178677
0.140194
0.0976313
0.0825359
0.0458974
0.101236
0.141744
0.140115
0.135282
0.125654
0.239294
0.140234
0.208597
0.115166
0.140124
0.0303609
0.140814
0.103159
0.140563
0.112588
0.0303233
0.127463
0.136838
0.115143
0.0956654
0.13866
0.0314149
0.253081
0.0335835
0.144917
0.13722