/*--------------------------------*- C++ -*----------------------------------*\
  =========                 |
  \\      /  F ield         | OpenFOAM: The Open Source CFD Toolbox
   \\    /   O peration     | Website:  https://openfoam.org
    \\  /    A nd           | Version:  7
     \\/     M anipulation  |
\*---------------------------------------------------------------------------*/
FoamFile
{
    version     2.0;
    format      ascii;
    class       volScalarField;
    location    "300";
    object      p;
}
// * * * * * * * * * * * * * * * * * * * * * * * * * * * * * * * * * * * * * //

dimensions      [0 2 -2 0 0 0 0];

internalField   nonuniform List<scalar> 
11372
(
-22.4587
-31.6468
31.0915
-33.5255
-0.352241
-31.9727
-9.48842
-25.3128
-9.40345
28.4036
-7.09138
38.016
-20.1242
-0.680567
-1.14023
-33.1745
-14.9366
-11.2551
11.6432
14.231
-33.0494
-1.78619
-5.05821
-34.2112
-9.16554
0.34145
-34.3172
4.51015
12.5932
13.0451
12.9637
11.5824
-2.07331
-0.289131
56.2142
-0.973827
-3.59372
-2.2267
-12.3843
-10.8344
-25.7584
12.3095
-2.05451
43.6415
6.68493
-19.6984
-5.55937
-27.323
-33.1938
-2.63815
-35.3622
-7.92457
31.483
-20.95
10.9441
-6.7227
43.2733
-32.5046
-2.56769
36.801
-22.3515
-19.6711
-0.559621
-32.8387
-9.29641
-1.25879
-16.9501
-33.6577
25.0367
-32.2602
-0.915198
-6.04206
-3.43838
-7.1781
-20.624
11.8153
-33.6191
2.03436
11.4354
-38.837
-31.0617
41.3666
62.7562
15.0495
-75.7799
-41.0899
0.810647
-6.90639
21.2443
-37.4141
-3.08033
8.24461
-33.0635
11.3534
4.01237
-4.14387
-16.78
-16.5513
-33.8779
0.919732
9.06399
26.5533
11.1609
-2.62684
13.7584
59.5169
-33.4996
12.0495
3.23758
19.7988
4.97213
22.7386
-2.79759
11.9882
-27.9786
8.12643
-27.2837
4.87985
-1.01843
-26.5756
-29.4777
-24.2528
-1.93326
6.29817
34.3856
13.4825
-9.67707
-20.1368
-2.56673
-30.5812
-15.893
-9.94339
-34.2695
-20.7419
-16.3868
-3.9776
-9.77683
-14.1668
54.4831
11.8023
-2.75271
11.6794
-32.7595
11.8466
-0.191374
-22.231
-34.0015
13.6329
12.825
-31.4622
2.04309
-24.0235
-11.358
-32.184
8.31885
-1.07207
-8.36847
-6.12507
-22.2664
14.3127
-5.01661
-2.83325
-26.8265
11.6621
-33.2759
-10.3882
-20.5487
-33.4901
-3.01649
-2.51658
-34.7143
-1.97221
-31.2461
-22.0674
-10.38
-43.284
10.6045
-32.3171
-48.4008
10.6201
13.3046
15.0153
-42.0026
-26.3064
-32.9952
-30.0078
29.6274
-31.0473
26.7642
-33.3846
-0.571753
12.2721
27.7126
-11.2548
-17.9719
-11.3757
-33.6266
13.095
-31.9386
-11.8968
12.9613
19.2566
16.3978
-6.96293
4.44419
-6.15238
2.05735
-8.72067
-8.08681
27.4817
-37.4582
-6.92037
-0.936516
14.0526
12.5447
-23.5143
12.6254
14.6582
-6.33412
-33.2326
-28.6116
14.1025
60.4927
-30.8256
12.1969
-3.91299
-33.8672
-1.85184
11.8802
6.61455
10.5899
10.4342
-18.6581
-0.310187
-32.1126
-32.0438
-26.1022
-0.938198
-24.0079
-8.79874
11.5291
-41.903
11.2358
5.06935
15.8315
3.70102
13.5953
-18.7077
9.08598
-44.5281
3.14868
-0.756586
-83.4783
-1.7932
-33.5386
16.6537
-32.0019
6.81183
18.7584
8.29828
-23.8701
12.0389
-12.5816
13.3647
36.0168
-12.5568
-5.68042
-31.4025
56.5114
-12.2317
65.2844
-13.7247
6.12994
-14.9951
-11.8932
-32.8956
9.13604
1.01382
7.77316
0.0894083
-2.54797
9.91866
15.1741
8.07776
-29.5499
-0.170479
-32.7091
-33.6619
-1.77362
-13.1858
-34.3866
12.1109
-34.2075
2.17419
-33.2247
7.43544
-34.0505
3.18778
-2.59788
-31.8894
11.252
-25.475
57.3857
-1.76698
-2.46286
-11.8563
44.2651
-2.271
10.8432
-6.69347
13.8693
11.2894
-24.3017
-53.7004
4.89514
8.11138
-33.325
-14.2251
-14.315
-30.0455
4.09997
-32.8668
-2.46711
14.2867
13.1396
-31.1881
-23.3401
22.5923
-5.97311
-9.23445
-7.97671
13.0215
25.7203
-24.8054
-13.9744
-19.582
-1.66297
-33.3333
5.18484
-7.75862
-33.6087
-18.7593
6.2721
-5.38496
-0.783978
-1.23692
-3.46708
-7.06258
35.3629
11.5509
35.0416
-16.0328
24.4292
28.3302
13.6261
-26.7139
42.9944
22.7053
-3.59964
12.4245
-2.8134
-11.2981
14.9506
0.109378
4.72626
-33.1148
-16.8385
47.0395
26.677
14.5169
13.7301
-7.64077
-32.1917
-33.9439
3.18496
28.8095
42.2531
12.4478
-28.7495
-31.9513
0.780534
13.476
-4.0512
-12.3115
9.82513
18.2392
-34.2444
3.85615
-20.526
-5.2707
53.1326
-32.8397
7.49886
-7.74823
3.66305
-8.48165
-0.985269
-74.7849
-4.9257
-23.0671
19.8436
-3.50619
-1.53865
-33.7192
-4.92424
-3.26333
57.6274
-30.1353
-8.69164
-4.96052
10.522
0.0949245
-3.51715
-34.243
-32.4891
-33.9535
-30.0501
13.8376
-0.624317
-4.58228
-7.57886
-2.12802
6.46515
-24.7779
11.6966
10.6702
-33.016
-3.40848
21.0395
11.1852
-1.78662
0.360852
0.00587691
-34.0092
-23.1885
5.47767
-13.7165
13.982
-33.8397
-9.14303
-17.9899
-2.31023
10.9553
-7.53841
2.59042
-33.2854
-33.8171
12.6172
-32.8889
46.6135
-0.699248
-29.5329
-7.7671
22.8314
-18.5467
-28.1739
-16.1903
-27.8051
12.6314
-0.681586
1.33743
37.8756
-28.2803
-5.28391
-32.5226
27.2823
-7.53128
-24.7401
-9.79787
20.0724
-5.60552
28.2062
13.5889
-23.2099
50.7805
22.1441
-17.9389
-1.19993
-2.1911
-21.3157
14.0809
59.4615
-33.5239
6.39209
0.574725
-33.9402
-2.4495
-18.3824
-1.59364
3.88227
-31.8971
-0.29688
6.28028
-1.8704
-12.0256
21.1845
27.193
-1.52815
13.3922
11.9703
9.91307
-29.8269
-32.6212
-33.1125
18.5386
-5.67526
65.0571
6.74091
-32.2178
-1.25527
-28.348
-17.2329
-14.0162
11.5128
10.814
10.1521
23.1089
15.0302
25.723
-8.93364
-18.3175
3.66642
-5.03445
-4.55051
19.9859
6.3972
-33.9844
0.290214
-32.1245
-10.0646
2.46436
-2.66552
2.84828
-13.6009
-2.66873
-4.70231
5.04958
-1.16056
-18.1695
12.8097
-1.43913
-32.9536
10.7557
18.4854
13.7128
-9.2775
16.772
-1.93459
-37.3975
-33.8436
2.48065
0.675303
-21.5018
12.4747
3.72076
6.12011
45.3774
11.2902
-4.55005
-27.1111
11.6144
3.75039
-1.65541
-21.2072
0.614352
-8.03737
35.3508
-31.0196
-16.1797
-7.04958
-0.0982655
-2.66229
4.30175
-48.1621
11.0376
20.3282
-24.5481
-33.8294
-2.59494
7.04327
-31.2695
-9.53672
-29.26
-33.754
-11.5801
1.70289
2.77268
-3.25713
-36.4289
-1.09508
-3.71794
-7.3316
-2.55525
-36.7274
-21.0894
-7.54959
-12.3821
-5.30481
-28.9584
-32.951
-15.8949
-14.584
5.0382
-36.9348
11.9305
-8.86086
-1.55708
-6.00246
1.69169
-23.7692
-33.0458
-1.84488
13.1521
8.8233
-15.1938
-13.5474
-24.1239
1.88786
-17.1177
-33.2881
-28.0942
-22.9976
26.2441
26.4018
12.6475
-7.1177
-22.6187
-18.1252
-28.4422
3.53414
-30.9571
12.3203
-14.138
0.378917
-20.3768
-18.005
-32.7241
11.1607
2.27428
-7.2516
11.0453
4.2708
-0.179486
1.49399
14.0303
1.74059
-7.41112
-30.7563
-30.4835
-2.25139
-1.82969
48.9775
-6.14438
31.5659
1.7421
-11.4083
10.1268
-35.2003
14.893
48.9002
-2.41548
-0.129048
18.1184
-54.115
-5.17275
-33.7889
52.2232
45.7636
-6.57062
-24.0491
-25.9594
22.9684
13.2751
12.6706
0.467962
-18.9168
-2.48823
6.88034
15.329
-22.0268
11.9217
-2.15028
-34.3751
-31.6828
-26.0957
-0.730328
-0.175701
-5.61331
10.4088
-15.1556
10.2312
11.0163
6.14103
-11.6723
13.9991
-10.658
17.0446
11.9734
-16.2336
-2.38056
-33.4451
-15.0869
-29.1416
-4.70001
-8.59047
7.6687
5.56668
7.58403
2.50175
12.9931
-31.2016
-32.2158
8.54799
-29.7576
15.1038
16.6195
-1.54923
-2.3048
13.1774
-5.48656
-25.9829
-6.9002
32.8671
-10.8127
-27.3827
5.17531
1.27406
-0.899138
-5.42856
26.9239
-35.005
4.76579
-10.9422
-6.99831
-2.7193
-23.4987
28.4964
-13.3749
-3.57683
-1.70188
3.74537
-53.581
-10.7803
-15.5833
-19.5424
29.0807
25.8463
-32.2137
-30.9559
-33.4316
-31.9765
-37.6649
-15.0077
31.8152
-22.7547
12.5089
-6.2295
7.81862
-33.2444
-0.885934
-34.3915
-31.9829
-27.2912
13.3509
-5.63244
-3.18546
13.8718
-2.03578
-27.5356
0.288115
-33.6308
8.92562
-22.1202
-3.10875
9.20689
11.7322
36.6743
-15.8456
11.5274
10.9058
-30.8073
-77.7711
20.4133
-33.169
1.69694
-32.0034
11.6147
-59.0037
44.6676
58.7607
25.5467
-4.45352
6.17134
2.37439
-36.0731
-34.3654
-11.8921
58.1521
-3.83394
-7.87305
16.979
-0.45747
-2.83406
-33.8631
-37.2518
-3.35758
14.364
8.83481
-27.3509
-33.6675
4.28392
-33.2045
-0.792479
3.26297
6.35161
-3.89974
-16.6352
39.381
-2.31773
-27.5477
-17.7564
-34.469
4.49296
-30.6775
1.17451
36.6159
-31.768
54.6584
-18.142
-1.59933
-32.5738
17.5262
14.3139
27.814
2.36904
-33.1549
-80.9531
-23.0726
-3.72659
12.5119
-33.9699
-30.7933
-17.2853
-32.2892
0.659944
21.3517
-22.6717
30.327
-16.2433
7.07955
-68.868
-17.7201
-16.3421
11.8138
16.4304
-34.0378
-1.32667
41.8115
13.5435
2.36046
-30.8208
-1.29588
-2.1974
-20.3819
-37.0156
-6.8456
9.40299
41.3654
-1.29713
9.90519
6.04483
-3.6541
-18.0558
12.6891
8.90465
-23.9182
27.3559
20.5562
-32.0045
-14.3058
-6.6851
-18.003
-18.9865
-1.93883
4.48564
-5.13163
38.4353
4.66604
-4.11153
-1.38694
-0.372135
-14.9286
-2.11239
-0.831255
-9.18955
-18.891
6.01195
10.2477
5.62318
27.5594
11.1679
-2.72379
3.0621
11.5687
-29.7681
-26.7637
-1.86586
-3.01111
1.33017
-34.495
-1.00478
2.75088
19.179
25.1394
-16.4094
7.18958
3.75866
-0.985543
-15.3062
-18.9818
17.7331
-5.93116
2.70792
-31.128
7.52363
-33.3997
-8.80357
-33.8236
23.0954
-0.692229
5.63903
6.07506
-8.51978
23.7174
11.5535
27.2729
-33.2027
-0.168972
11.6043
-26.1862
15.2911
8.23223
-5.28566
10.8955
20.9454
-2.31817
-33.2891
8.93018
-3.74076
10.2419
-7.08462
6.90891
4.35208
-24.6666
0.84957
-2.12589
-22.9917
0.497084
-33.2367
6.0173
5.44558
-55.3464
-6.31633
-0.832399
9.56097
18.807
10.6216
-4.01056
-9.57298
43.4338
-15.569
-4.03043
-8.03075
-2.51148
-22.4547
2.28656
-0.29215
3.06411
1.24389
20.4316
-33.0946
-0.486227
25.9154
48.6072
-14.9907
16.2341
-19.327
11.3254
13.1843
23.3153
-15.1699
13.2735
13.5256
-6.28256
16.0428
-31.8967
4.34731
37.1718
5.63408
-32.4341
-16.0993
-18.4523
12.836
-4.02658
-1.68388
-16.8465
-1.0193
5.27607
-32.9179
-1.29766
-4.65567
-33.4198
1.43605
-6.49502
-0.160689
-27.9592
5.42747
18.4442
-9.05944
-0.714052
11.2247
-27.0112
7.52657
-4.58235
10.5867
2.40603
61.2559
-25.132
-5.01471
18.5428
13.471
-26.1457
1.17568
10.5613
-26.9216
-4.43269
24.5269
-0.626266
1.93197
17.081
-2.42092
-14.5118
5.06304
3.25888
-3.48839
-27.8318
-12.1901
-17.5757
-29.5313
2.72176
-15.3438
-33.6872
9.84518
-8.41806
12.8964
14.2674
-0.287801
-27.9996
9.75005
14.5259
-33.1982
-5.5759
-24.6945
-12.6048
11.6058
-32.8808
-35.4624
11.2628
13.206
-20.5064
-12.2583
-34.0413
-34.0506
-5.84696
-12.6108
-15.9762
34.8021
-2.53771
-13.6035
-0.998308
-2.60794
-23.4627
20.6453
-8.01848
-11.8788
-6.20527
-1.05901
3.11187
8.51037
-6.51706
-34.5574
-36.0661
-1.2364
-31.5838
8.90371
54.7119
1.10661
-28.8548
-31.8547
-7.37322
8.34143
11.5654
48.128
10.5466
16.1902
-26.8772
-22.0991
-12.386
57.126
12.5866
14.0322
-34.3787
-30.4134
-33.5393
-31.7694
-4.82355
-20.3399
17.726
-4.55617
-2.24103
26.6919
2.25483
1.20563
-30.0183
15.2456
-13.0296
-0.800744
14.7564
10.4903
-29.2083
-2.9401
-2.38175
10.0373
-1.81707
-11.4004
-4.87549
-6.52861
-32.2768
-33.3313
1.41428
-51.5589
12.6612
56.6983
9.20762
-30.1953
-13.1872
19.0073
-2.41681
8.88538
-50.2493
-2.06049
-30.9156
63.8339
55.9476
0.173038
-34.2115
-33.8377
7.70007
0.452186
-0.408997
55.9613
-10.8003
9.88435
-0.381044
11.2434
11.2099
64.011
-33.4629
-5.93595
9.12793
-4.03734
0.287135
-1.07996
-31.5993
-12.2869
-8.95959
28.0607
6.88624
-10.3953
-6.85486
19.9154
-1.71657
21.409
-3.80062
9.89118
-0.628058
-13.396
25.6667
20.5626
-6.4354
-17.8026
-18.8196
-30.6591
-0.982934
19.9863
-1.0009
-2.51802
-32.3551
-33.0018
6.16089
-32.8501
-7.21281
-12.0527
-20.8151
-2.71656
-17.3121
-28.3674
-10.88
44.44
4.00812
11.7717
44.1973
-5.59639
32.0663
-33.372
-4.2264
11.9239
-1.96809
-31.8189
-9.0726
44.3954
15.903
-33.4064
13.387
-22.6984
15.008
-33.6907
-4.11131
-32.1068
35.8868
-0.962611
1.17212
-18.1881
0.124863
-10.1794
-25.2938
-2.43101
0.543206
19.818
-20.7187
-33.4138
-31.4653
-44.9624
5.48272
-24.3093
30.5472
11.8837
5.90768
-32.7855
14.1856
-1.93449
-1.59201
-15.6325
-0.813553
-33.9053
3.96658
4.69957
-6.9614
-27.1211
-19.0883
6.93667
-6.35747
-9.97527
-12.2663
-32.3245
-32.3902
3.8493
-21.9099
-21.5821
-24.5102
43.8064
-22.1667
12.9565
-19.1578
12.0932
-31.5032
5.16131
-4.57802
6.77919
-4.83292
6.79353
-16.9445
-33.0776
22.7487
-28.4135
-33.6035
28.1394
1.99073
-23.8646
12.4511
-5.78977
0.0988913
9.90721
-34.3682
-22.6893
11.5911
-33.5508
-20.1162
16.162
-33.2322
9.36176
-3.30023
-8.55217
-3.12007
-13.1281
16.2436
-22.863
10.5409
-23.4635
-28.9836
13.0309
3.21909
9.23158
-14.8459
24.2639
-0.889631
-6.4052
2.56779
3.44944
-1.84266
-11.6859
11.4987
17.3333
-1.5514
-76.9007
-2.19727
-0.603291
-64.8889
3.06534
-8.95913
1.44123
-31.6143
-34.2284
-34.2622
-11.378
-3.08479
-17.3872
37.2105
-1.79038
-31.1924
-24.2291
-0.179024
-17.3747
-13.2488
42.5548
12.9036
-3.11238
-33.3364
3.20417
-18.1063
-0.249967
1.44127
-30.5816
17.1741
50.4854
-6.59232
-34.693
-6.48444
-3.7033
-25.9715
11.9307
-30.7566
20.5899
52.8465
-14.2209
11.5873
1.0961
31.0533
-6.33834
6.29653
30.1021
-5.37751
-1.99186
-19.2942
-32.8269
-23.0935
12.4251
45.3774
14.1813
19.2693
-34.0294
15.7121
9.4479
-11.9568
22.799
1.80908
-12.469
5.08232
25.1362
14.7016
-27.2818
-11.5718
-4.70753
2.0182
-9.35743
-32.9631
-16.969
8.89591
65.6376
-23.2632
-19.8591
-12.3076
14.6451
-33.9401
18.7783
-3.13517
40.6696
37.144
-3.39604
49.892
-33.8434
29.5832
-2.5324
-26.2453
-8.21081
4.67446
-34.0753
44.2349
-6.353
-1.32131
-7.69154
5.51372
-0.0465238
-2.39623
-31.4755
8.49136
-9.60374
-9.33518
50.1727
-27.0789
-38.5952
4.51207
-50.4538
13.3314
-11.8187
-2.03115
-18.9398
-4.93313
1.42817
7.72647
13.4281
12.008
7.66124
-22.8557
-8.80586
-17.3021
32.0859
16.1177
-6.48923
11.6079
-4.1045
-31.4517
-18.5114
24.1498
-6.00882
-5.05907
14.7501
-6.53661
-1.96962
5.67623
-0.333784
-2.08846
-41.871
-7.56788
15.2205
-33.5088
-12.6295
-30.1615
-30.6469
0.302187
11.7101
-25.8317
12.154
-7.72216
12.997
-12.892
-3.11763
20.6141
-28.0426
-29.2397
15.5083
-18.0797
12.8144
-32.6207
61.279
-20.8328
-64.7106
33.9827
-22.8921
-33.3126
5.12024
-34.4374
11.0574
0.338205
-34.4952
-6.19921
-3.84387
45.5795
-27.1314
37.9511
-17.9675
13.7597
-4.80924
-1.56291
-29.9983
-34.7826
-9.42535
60.771
5.83375
-9.22582
-33.589
-13.3049
-5.47455
-34.3234
-15.8587
27.3198
11.0957
-52.2536
47.6035
-10.8657
3.99666
5.35821
14.6421
10.7885
15.4842
-4.94748
-10.9283
17.2135
-1.93846
-3.90024
19.6578
-1.47035
3.96827
-4.57751
-5.61226
-10.1824
-21.756
-1.40021
-18.0957
2.03711
-16.4276
-26.8606
-33.7049
-33.6576
-8.90432
-22.7352
-11.8974
3.2264
-2.73543
-34.005
-25.3648
-0.781008
-4.93598
37.0855
-33.6161
-5.38072
-2.95767
6.44489
-33.4185
-5.2102
11.8315
-33.9748
-2.03998
-28.3955
-6.27853
-11.8131
-3.36143
-27.4191
14.4016
4.08668
-3.77433
-1.91262
11.9157
-33.4509
-10.3565
10.0706
-32.8594
64.4995
-5.25796
-1.01129
7.15325
-0.0175115
6.05765
-1.12879
-0.226553
-11.2536
15.6591
-20.7423
-0.822055
-2.01149
-31.2833
15.0012
-18.7269
-12.2248
14.1297
5.97098
13.5331
-31.3593
-23.3834
-65.9256
1.57039
-1.17916
-2.60593
-1.31973
5.40609
-1.64698
3.18188
-18.0587
5.49515
-5.43081
-24.1247
-22.9178
-4.55343
-5.35086
14.8833
5.26381
-0.715526
9.88224
-15.6171
-4.18217
-9.22582
-21.904
1.06109
-3.4406
-6.94128
-7.03135
-27.6396
-16.5013
19.1921
-15.5665
-0.355157
-1.40237
5.87241
59.8126
1.6135
26.6331
-13.4809
13.4936
0.707224
37.937
12.1838
1.20804
51.645
8.63902
-2.70033
-29.1634
-8.92466
-16.7512
-33.0509
11.4185
-33.9365
12.8816
-3.62169
-33.8155
-31.7446
11.3832
9.56854
10.7304
-0.422446
-33.9201
12.8483
-29.8188
-5.61304
49.6448
-10.5895
11.8671
-65.1
-27.6652
41.3498
6.5984
-15.8086
-22.6661
-7.36824
-1.24218
-18.0461
-1.68053
44.6404
0.444445
-10.389
-24.1094
-43.6146
-1.21716
-2.3627
13.0105
-9.38675
-32.6298
-23.818
-2.46166
-24.2301
24.6234
-2.25569
-3.82196
-5.9329
-15.058
-2.70119
11.8204
-2.12601
-2.57979
50.7089
17.9991
-10.931
-5.19574
-0.224972
0.353421
-6.69793
-30.523
-59.9071
-6.71836
10.9992
10.0903
43.1795
-0.675496
26.2329
15.2492
-0.412362
47.6004
-33.0452
-1.83003
-13.1805
-33.874
-18.3194
9.47251
18.8807
-5.12625
61.2898
-15.2103
-34.6457
38.791
-12.6597
-12.5439
0.108356
25.0613
16.4976
-32.0795
-33.6956
-3.2817
2.38974
15.4831
0.143796
-15.0956
-0.680889
-33.1193
1.38197
-10.0295
-7.54541
25.8794
-13.6786
4.61169
2.75189
-33.7643
0.944784
-2.0471
11.4147
0.260439
-5.10876
-14.3229
8.21161
-2.43532
-33.5377
-13.4332
-1.69415
-4.43259
-2.25053
2.71063
49.7566
-33.9783
-15.7161
-2.24182
18.71
56.5022
17.3782
7.03155
26.2759
-7.40482
11.6468
-9.60986
-3.35419
21.5872
-32.1455
-33.4235
-2.39064
-33.0742
-17.899
21.8016
-33.5942
-22.1433
-1.9063
5.13584
1.10836
4.23336
-22.7167
12.1217
-32.9054
-3.55763
-33.6706
-30.8931
18.7563
11.1266
-2.04999
-13.1643
15.6287
-0.536252
-21.3784
-7.96594
15.0235
-33.5981
-2.85786
-1.45064
2.08734
-1.84084
15.0956
-31.8627
10.8814
14.4328
-25.2518
-2.18925
-33.4255
-21.3763
19.6311
-35.9629
0.00757045
-0.221148
-29.8686
-33.487
-33.9528
1.82087
22.5834
-45.9565
-20.6012
-1.97627
-0.513883
-4.04032
-32.1298
-29.4268
-14.4363
-34.243
-23.1896
-15.1115
-34.4126
-14.1838
29.46
10.6436
-1.80112
-4.14584
-18.7573
6.49729
-24.9204
-14.1874
-23.1766
-0.042126
-24.7576
-11.8676
-0.594396
45.4424
-3.39273
13.3914
-42.0491
-41.8506
12.5259
26.279
-33.4613
-25.5963
-7.50043
-7.54639
9.95484
-21.6947
4.87105
8.78443
-0.977379
3.0285
-2.79285
-0.989954
-33.8324
-29.7676
28.8614
-6.1969
10.3913
-4.51471
-41.2482
-2.36116
-32.5033
-8.183
3.83392
10.4304
2.88863
12.1988
-23.7791
15.722
-43.7303
-27.789
2.25862
5.79455
-13.1469
60.1608
-1.927
10.8524
3.05183
-9.15257
-3.12736
-0.963961
-27.1327
34.3891
-32.366
-26.1758
-0.542956
-10.3409
8.79879
63.8138
10.8575
-4.2913
-0.153955
-4.39501
42.9411
-25.4513
-4.48636
-11.1137
-15.5219
33.4615
-29.0236
-0.59191
0.143644
-32.1201
-31.4551
-3.74811
-5.93166
-33.9824
-3.59779
-31.7486
-2.11232
12.7409
63.5553
-4.55835
-31.9901
7.75478
4.5022
11.9822
14.6775
-1.46437
1.82798
16.0489
11.522
-4.14115
-12.4793
12.1259
-19.3393
26.4919
-17.3256
-22.6274
-2.61674
-26.9884
-3.96606
14.0324
-4.98112
-1.0915
38.1929
-27.8165
13.9392
-33.8918
4.28581
1.29197
-11.8531
12.2796
-1.90431
-9.38235
-16.1322
9.62651
-17.9513
-0.726844
-3.61764
-29.3956
-33.8431
-48.5175
-29.3682
-17.5673
20.2978
-9.36948
-4.6449
-0.155293
9.62592
-30.4607
11.9827
-1.65351
-29.4573
-33.1894
-17.1813
-8.25933
0.0654509
13.1284
-12.3142
6.60021
20.0206
-31.1558
-26.7882
-31.8785
-20.7548
-4.46092
-1.55511
-3.42525
-34.1689
-32.8273
-2.74515
-18.1024
3.06334
28.9848
-8.02271
10.3124
14.4674
-34.2823
9.11859
30.574
-29.2111
1.87427
55.3764
-24.6529
-32.7572
-20.935
0.0166693
-7.88317
5.20048
-26.7421
-16.1212
10.4896
8.73981
14.6275
-5.91619
11.986
-29.35
-8.57822
-34.5234
-2.7971
15.732
-33.3668
12.9704
1.62847
-5.7617
0.208188
57.1594
-33.5776
-33.0096
18.1274
-5.884
-14.233
-29.1116
-5.40595
-31.4632
17.3669
-61.6082
-2.60785
63.5755
-20.6627
45.594
-2.57232
10.9029
-18.8815
-33.8916
-1.46115
5.48582
12.5907
-5.29588
-33.7
5.82988
11.3227
-7.22266
-0.551033
57.6298
20.5116
-2.28453
-6.69292
-16.2227
-29.5243
3.80904
-10.2306
16.6229
0.205109
3.64818
-1.42706
-7.41471
-2.60442
35.5947
-1.11664
-33.4059
-4.87833
16.9252
-33.2715
8.95042
11.6659
-13.1283
14.3875
-34.2578
-2.94969
-22.8682
-28.3927
-34.4696
-12.7915
-32.4071
-24.0625
9.01385
-30.6365
3.10144
-12.2511
-5.41849
-33.692
14.2761
12.7169
-34.2386
-10.753
-10.3382
-33.0511
10.7792
-24.5833
31.5549
-3.82722
25.0326
-18.5077
-19.5628
-10.2907
-33.3008
33.3412
16.7728
-34.2776
-0.0581668
-33.2324
1.85463
-1.39715
-80.4277
-34.4076
33.5093
-6.08064
-10.9661
10.3678
-10.8528
-1.55159
17.9061
-2.11705
-40.9997
-7.96463
-6.57502
-9.74333
-24.1152
3.93435
24.582
-11.4346
22.0635
10.8917
-11.1439
-5.69348
30.3612
0.844501
-1.97607
46.896
-8.73914
0.459469
-32.3551
-33.5722
18.2601
15.1785
-14.3811
-10.0217
4.51873
-0.698602
-29.3669
-28.4984
-13.5094
4.23293
-0.136103
0.93629
-16.7806
-3.71914
64.9317
-1.26
-1.76103
-23.2639
23.7568
-35.9265
1.14489
25.2098
-34.4057
13.9333
-5.12882
-43.955
-3.14978
-0.811775
11.1561
-16.5846
-0.0883241
-2.12056
-4.29208
-12.8099
-0.898624
14.0144
-9.90233
-11.0862
-2.563
7.32937
-4.29077
-8.21444
2.0031
-2.01383
19.0047
20.473
-8.79447
29.4185
-43.5196
-14.444
4.64912
7.92062
16.3832
7.83641
-18.1304
41.2664
-26.7469
4.97802
-3.60337
-7.39262
-17.7489
-2.24529
-12.5005
-32.4108
13.6545
-6.577
-10.2141
-18.455
57.6195
-26.2518
51.0304
18.702
2.42063
-3.47884
9.14862
-32.0606
-7.24695
48.8969
-5.02938
17.2682
3.06839
-2.62152
13.0071
6.31712
17.0439
-26.9455
9.407
-4.5665
-32.3212
-3.04202
6.88089
-32.3181
7.42731
-1.85121
3.92574
6.75151
42.1344
-2.87446
-21.943
3.63402
-30.1445
-4.25545
-5.2312
-23.9244
-0.9895
-3.19032
1.19368
-14.7216
-1.87047
-15.3496
8.79913
38.9021
8.08437
32.7719
22.2838
-3.23325
9.41247
-5.86976
-1.65853
-26.3244
-31.365
47.1122
-24.5136
3.32521
30.6644
-3.90941
-2.3105
-33.0398
0.694232
-19.8981
-24.2193
48.0328
11.2474
23.294
-1.84221
6.6724
21.5673
-15.435
12.5934
-4.95603
-12.3677
-0.193509
-0.180488
-3.21537
-2.25427
20.0597
-28.3488
-6.46485
-33.8589
-33.0407
-8.83376
-33.1636
-2.00242
2.94211
2.44649
-0.182219
-33.8748
-11.5167
21.1279
-1.64949
43.4318
16.6942
-2.54181
7.24556
-2.80983
-19.0716
-3.42475
16.499
-1.69922
-33.3755
-38.733
49.5679
47.9968
6.54131
-2.96626
-2.61904
28.8274
-98.1755
12.1123
-0.0197484
14.3257
2.50305
-14.6478
14.3532
-32.1157
18.2145
8.78577
0.829313
-6.78094
-6.53318
8.97446
-13.1055
1.11003
22.9951
-33.3787
-23.7799
13.2363
-4.08304
11.8628
-9.78284
-5.01529
63.9818
-27.4498
-24.2647
8.60532
-1.89517
-25.1459
35.9493
-33.3809
18.1675
-31.9971
-32.0809
-23.9652
-4.15226
-4.60229
7.0812
-33.8905
15.0902
15.271
-23.5029
-9.60339
31.0198
-7.60613
-1.4699
-34.5202
-21.6068
-1.02194
-66.89
-16.3224
-6.74249
-0.468528
7.73434
-3.6925
4.75551
13.7104
-15.804
-29.636
-20.324
-2.0073
-14.2088
6.89351
40.1662
-19.7332
16.0348
-33.0504
-0.807791
15.6396
-27.4705
-4.42853
52.1506
-33.611
-31.3905
-33.377
-3.16515
17.502
-38.1918
-1.65959
-86.1744
-0.712342
10.5917
-1.27541
-12.4212
-5.79941
11.8209
-16.0369
12.4878
16.7153
-4.166
-33.71
0.573246
-2.30423
-0.423436
-5.82535
9.61962
-5.80893
-0.549386
-5.32931
1.22353
-4.34908
32.2468
-50.0939
-12.8183
-4.22336
-1.56476
24.7625
-18.9743
-1.5172
41.1939
-18.0245
62.9844
-3.21431
57.6388
-59.553
-16.7147
31.7158
26.1366
-27.7188
37.5427
-23.4539
-23.3337
55.5348
-11.3415
13.0045
-22.7341
-14.3774
-9.45156
-33.5926
11.7293
-5.80094
7.01271
-15.331
-28.1397
4.68843
-6.88548
-6.05664
5.2736
-0.454523
0.658708
36.2422
27.8392
19.5387
14.3478
-13.5704
1.04649
-1.95916
-32.7981
-7.1521
9.39059
10.8784
-11.775
12.6749
-33.5576
62.4853
-5.13632
-18.822
-2.09959
18.6717
-5.3416
-11.2497
0.508643
36.8745
-1.25883
-28.3056
-4.84706
2.07876
-34.2791
-15.2085
16.1322
-4.08132
5.00081
-35.2735
-18.0424
2.05253
9.71817
10.0441
-3.13175
-25.5971
-35.7346
-5.91989
18.4032
-3.83948
5.79381
-0.966097
-27.9709
-29.3376
40.6494
-31.5174
-5.17822
31.9784
-21.2054
0.65913
-2.60811
-58.1283
-32.8734
-2.23611
7.52238
33.4961
10.5244
-11.3343
-1.98492
-33.0204
-33.7969
-5.81123
33.0449
-1.32206
8.76835
-1.93903
-1.3695
-10.4629
-29.5924
-14.3896
11.7579
-8.35076
-30.3282
18.0111
19.22
-10.4487
16.6314
-0.75935
-11.9513
32.5795
-0.989777
0.101174
1.78314
-15.8169
-3.80002
0.692869
-1.76673
-24.7064
-33.7274
-3.70998
9.47601
-0.424312
-0.652197
13.5742
-18.5079
20.409
-59.7458
-10.1709
36.4899
17.5832
2.13755
-0.720838
44.9877
-30.0495
-34.0615
13.3301
-32.1362
6.29476
-12.9588
-0.113385
-5.69374
10.7847
-11.212
51.0386
-9.28449
-8.07485
6.77875
-4.26783
10.4687
12.2792
-31.8306
-16.7866
6.24902
53.1667
3.84297
21.5496
-0.107422
-14.9641
20.7712
13.1186
-14.6363
6.73686
18.0093
-1.68214
-17.6236
-8.1499
1.09089
3.44579
-5.76012
-36.9587
-31.7994
3.79362
-10.1513
57.1197
13.4777
-33.8466
-7.67662
-31.6248
-49.4067
-3.1991
21.7403
0.610433
-25.1369
8.47977
11.2601
-0.872464
-8.59114
-33.3111
6.28884
-2.10231
14.3713
3.72136
-24.1322
-30.357
5.81444
14.6891
-12.3124
5.11866
-9.70684
-9.05164
41.472
12.0146
-31.5258
19.2291
-2.31506
-19.5823
9.57484
-31.752
-28.3629
-18.1911
11.7889
-0.928073
20.9172
-30.2696
11.4531
-32.6177
-47.3092
-8.74799
50.731
-12.137
3.09475
20.4513
10.0638
-31.2396
19.5492
-2.0546
7.89866
-29.9934
1.96751
-26.9478
-3.30472
43.8068
16.6518
11.0001
-8.83084
-53.27
-21.5891
-21.2243
1.34638
-2.33796
51.2431
-31.1923
10.3721
-9.90292
18.5621
-7.75405
-15.8528
16.4887
13.014
-7.11632
-4.02096
-2.84263
60.366
-20.4037
9.59163
-1.77601
10.99
-6.99061
45.4214
-4.59043
-31.0229
-16.5814
53.1389
14.2725
-5.03522
-16.0795
-20.2198
-4.85919
-9.26696
-29.0155
-6.40132
9.53021
9.76617
-2.43718
-0.291624
46.7771
16.9164
44.1554
22.4667
22.6275
-32.0275
-21.4495
-1.3417
-2.44969
-35.6211
14.3962
-30.3838
5.39696
-28.0937
-10.6704
-9.9402
-1.47864
-43.6399
2.84385
-15.6849
-30.1603
-31.0323
0.793235
-1.54263
-33.352
-6.29219
0.466505
12.3641
-7.20852
-1.04643
-14.0118
-13.9407
-15.4463
-12.4573
34.5231
-18.3936
-4.45145
-11.0322
16.2571
-37.0609
-4.16619
-3.23287
-2.69138
-7.9327
7.29544
3.45366
40.0893
-27.5036
15.1859
-36.9889
5.71873
-3.18798
-4.77718
-7.7526
-25.5634
-4.15608
-23.5524
-32.6852
-31.9506
-33.7549
-0.589245
-15.3385
-6.62746
-33.3863
-8.78319
-32.972
-4.73687
13.8967
14.9982
9.58951
21.8785
-33.2683
-31.3152
-24.5233
0.0279063
50.5078
-33.7948
-25.3491
-3.05941
-33.4924
29.3812
19.8277
8.35957
16.019
-28.7951
-5.2666
12.1387
-9.27807
13.2592
-33.3651
-10.6933
-11.469
-16.1456
-7.52135
-3.4028
-33.7127
12.0224
-19.1822
-17.6004
-10.707
34.9212
-10.0584
-7.15036
-22.5095
-22.1977
27.3525
-33.5231
-15.1024
-33.0284
1.22715
-32.6367
-0.629764
-4.00982
36.1709
-10.1552
-34.0094
9.75783
-4.49752
24.6483
9.36936
-3.89366
7.34897
-32.365
-2.44616
0.412286
-8.70587
-12.5032
17.417
-1.32499
16.7307
-2.58297
-7.57
8.42992
-24.5248
9.8459
8.52422
-32.4408
-37.4593
10.2672
25.4292
8.66385
-14.5911
-1.90313
-49.2503
7.13359
-0.92441
5.90381
-2.17239
15.8074
22.3524
23.4583
-4.07209
-7.44811
9.71568
-24.7662
-20.9692
-33.1696
-33.3643
-30.1776
-32.4308
5.56019
9.32906
6.38944
-14.8413
-5.17426
-3.7434
-3.11457
11.4028
-3.48152
-38.4876
-3.0592
-19.9352
-5.40833
0.25571
10.956
12.8488
11.6364
3.46271
-33.5779
-28.5832
1.87559
-76.3252
24.2104
-7.48059
-11.0559
11.0642
-2.49226
11.5827
23.2731
-20.064
-29.6133
11.702
9.53018
-33.6263
-30.4917
11.592
-2.09841
-22.7743
-7.14437
13.6531
-20.3884
22.1411
-2.22103
-2.39299
-8.20627
-24.6398
30.7174
35.9472
-78.2578
-25.5585
-23.0091
46.9508
12.9092
-0.351512
31.9526
-71.9975
33.6609
-33.2293
32.6511
-6.3258
-0.572083
6.31022
-33.4513
-1.58513
19.3238
-54.8385
7.14594
-8.20983
-3.93402
-1.36028
-27.2483
-33.4102
-1.81154
-5.21092
-0.224895
-44.8782
-33.7448
-4.51985
-1.78118
-3.87137
-28.4987
-5.23131
23.3353
0.429844
-21.6789
-23.9853
25.6404
-33.5011
13.0017
7.1344
7.57405
7.58955
-22.7396
17.1403
-1.06534
-29.2958
21.6609
-10.3653
3.62875
-2.56469
12.4402
-10.4498
-53.8628
-5.45223
-2.52513
-33.8535
-9.06669
-79.9926
-13.1858
-23.1477
35.9932
8.47887
-3.03871
-5.7376
18.3599
-33.4551
-3.46602
-17.3244
-13.1693
-13.7497
0.0846275
11.996
11.4349
-19.6855
2.55861
-1.0312
-5.06212
37.8975
-32.7431
-33.714
-8.04165
-7.57307
-27.7833
-6.33531
-63.9689
-5.23673
0.985663
-30.8035
-28.5548
-8.07562
-4.17809
11.131
-32.205
11.7272
-12.1445
-27.1364
-36.4491
-4.59951
-1.10288
16.5113
8.69297
-0.145094
49.7456
-4.88939
8.4355
-4.82625
-1.00708
10.5472
21.315
-10.2095
-20.5061
-32.8642
-32.2548
-0.113154
22.8917
0.613477
-2.30239
8.57181
-17.1815
11.5455
-27.0546
-11.6797
-10.2473
13.6137
-0.132189
-24.6037
-1.61447
-33.4985
-18.8489
-11.2673
-2.14376
-1.2033
-5.64413
-76.5354
-3.65332
-18.4542
-38.8789
-5.18164
1.99304
11.5179
-6.47959
-0.0588526
24.6386
0.846809
13.0862
-4.98122
-0.37416
-32.8687
-6.88094
-6.5835
-11.6518
-9.65831
-25.8328
-25.0462
-11.2791
1.60406
20.0603
-24.7509
-0.92732
-30.8819
-34.191
-4.28267
-15.7585
-9.24505
-8.75261
28.0897
40.0524
-33.2184
-32.8525
-8.58337
-9.65361
-12.9432
7.48546
-2.95376
-20.779
-13.5456
-8.42083
-15.778
18.3287
-25.8909
-12.9069
-34.0691
2.81847
10.3801
20.7218
-83.4799
-0.333756
-10.9876
-0.00211484
0.191075
-14.0028
11.3098
-3.51324
-22.4801
-34.3448
11.4161
-8.601
-3.94707
-6.58836
10.1851
-4.68426
31.5083
11.414
-31.0923
7.5264
39.0575
5.38198
-6.2024
-4.97959
-34.2664
31.2692
8.56637
9.56145
-26.2697
11.8779
37.4987
3.93785
14.3727
-0.779801
-28.9237
24.2526
13.0712
-11.2005
-30.0149
-32.8382
2.54707
-0.076158
10.2215
-34.2994
-8.64402
-49.2222
-0.451909
-0.692135
5.38758
12.4435
-6.4852
-31.9274
10.4306
-33.1201
-7.818
10.4452
-29.0463
-2.88261
-32.6703
4.03913
4.29564
-29.0171
25.5374
15.2052
-6.17265
46.5594
-4.18698
-31.7739
-19.8588
-32.5833
-0.264831
14.7162
-6.19142
-4.18131
15.144
-1.52408
11.6187
6.84701
-13.1468
-31.5948
-29.8032
-4.59175
41.757
-12.2475
-24.3934
-3.27712
2.73794
13.6887
10.558
-22.7552
-12.7732
-5.1797
46.6351
-34.9974
17.4904
-9.60074
-2.69116
7.58997
-9.14917
-1.87343
25.3162
-0.884189
-1.57031
11.7722
8.52892
-16.9284
6.02915
10.4058
-33.215
-0.392941
-4.4542
-21.8924
-33.292
5.47198
-30.8611
-30.98
-1.99513
-25.0428
21.0076
-16.3019
-10.8011
-12.5064
6.30665
12.1717
6.65609
-0.293403
10.6054
-7.64198
-6.73793
7.50473
-1.73003
-10.5118
15.0495
-33.6501
-53.3842
22.367
1.04152
4.4838
18.4084
-12.9695
-20.1583
-7.71491
-20.9778
10.2073
-4.67099
17.9988
63.4885
-27.1862
-14.4401
0.446542
12.7476
6.0234
-4.14763
-2.17214
-22.0453
-6.9204
-32.583
-30.0661
-9.18683
27.9276
27.0457
4.29826
4.43713
-33.0901
11.3254
57.3103
-33.6627
-28.2472
-5.14837
-32.5019
-1.87507
12.6825
0.959548
33.2224
-22.9013
10.3903
-19.8413
12.4314
-31.1712
-3.07265
40.1238
-38.0247
5.841
-35.3827
-27.8643
-10.1448
-2.27613
3.89188
6.92667
-33.1524
-11.1063
14.3757
-1.35384
-30.1818
-14.0514
4.72515
-33.5328
10.5016
31.6794
-26.725
-11.1937
3.64163
11.5314
60.0336
-8.00881
21.7137
10.7257
36.8676
14.8733
-32.9969
-23.0093
-1.4295
-2.94096
0.261389
-1.01128
11.8339
-2.01694
-33.8924
-2.77513
-6.66255
-22.9517
2.19479
-8.42768
-31.4561
-2.01102
3.79545
-17.1856
-14.7519
6.75987
-0.248829
12.3577
-26.5559
-0.182201
10.196
-22.4467
-4.00011
-3.04479
-2.20248
-3.49655
-7.74092
-6.83589
-33.8221
-2.52048
-12.5346
-33.4653
-48.9739
-13.4473
6.08373
-5.30205
-5.85476
-31.3109
14.8913
0.785423
7.92481
46.1806
-1.66361
21.4627
-8.65731
-2.70959
9.28906
-24.6165
-15.1727
26.1675
-18.734
-14.0463
15.425
-25.0988
-28.7271
13.4814
-31.6756
-13.8044
12.1392
-8.43193
-3.2783
-0.733727
-33.7961
-15.4536
-45.7489
-0.889362
-1.69336
-8.31872
-15.4557
-31.9607
-12.8575
28.1985
-27.531
0.662847
-12.706
-12.3717
-33.2202
-1.46197
1.18284
-33.001
-36.5493
11.6397
9.20073
3.5416
-10.5304
-12.5768
-28.6688
30.2784
-62.3984
15.268
-16.6364
9.18825