/*--------------------------------*- C++ -*----------------------------------*\
  =========                 |
  \\      /  F ield         | OpenFOAM: The Open Source CFD Toolbox
   \\    /   O peration     | Website:  https://openfoam.org
    \\  /    A nd           | Version:  7
     \\/     M anipulation  |
\*---------------------------------------------------------------------------*/
FoamFile
{
    version     2.0;
    format      ascii;
    class       surfaceScalarField;
    location    "300";
    object      phi;
}
// * * * * * * * * * * * * * * * * * * * * * * * * * * * * * * * * * * * * * //

dimensions      [0 3 -1 0 0 0 0];

internalField   nonuniform List<scalar> 
22555
(
0.00439728
-0.0712272
0.0982087
-0.0313801
0.000747697
0.00277599
-0.000939856
-0.002584
-0.0223435
-0.00352197
0.0227612
0.00310433
0.00400268
-0.0035896
-0.00441748
0.00400439
0.0679549
-0.171448
0.0331093
0.0703842
0.00286266
0.000828428
-0.00294353
0.0729027
0.0371078
-0.0764541
-0.0335562
0.0802564
-0.06323
-0.0337731
0.0167464
0.028245
-0.126858
0.103094
-0.00448053
-0.0103177
-0.0184556
0.0211758
0.00759746
0.0510488
-0.0770752
0.0860322
-0.0600057
-0.0285922
0.00119587
-0.00758659
0.0349829
0.00430048
-0.0472768
0.0108737
0.0321027
-0.171194
0.137985
0.0357271
-0.00251809
-0.102143
-0.0128682
0.0916742
0.0233358
0.00239212
0.000493126
-0.005827
0.00294176
0.0704505
-0.052923
-0.0350885
0.017561
-0.0857629
0.0581506
0.0553662
-0.0277538
-0.0277538
0.020934
0.0684168
-0.061597
-0.0308306
-0.0723372
0.0325512
0.0706166
0.00447496
-0.00502361
0.00543356
-0.00488444
-0.11879
0.141069
0.127227
-0.149504
-0.00745981
0.00734371
0.0232694
-0.0231532
-0.00190122
0.000829983
-0.000857214
0.00192862
-0.0478035
-0.0827035
0.0136598
0.116847
0.040628
0.0585428
-0.0342578
-0.0649136
0.000108906
-0.00315688
0.00116713
0.00188083
-0.0785333
0.0170583
0.0134605
0.0480146
-0.064272
0.062515
0.0892126
-0.0874557
-0.051128
-0.082611
0.0610698
0.0726692
-0.0682421
0.0597728
-0.0043741
0.0128435
0.115561
-0.0972721
0.0846061
-0.102895
-0.103249
-0.0866176
0.0968689
0.0929982
0.00262598
0.0846685
-0.0813508
-0.00594374
0.0052059
-0.00474947
-0.00545833
0.00500189
0.183712
-0.0456513
-0.150963
0.0129018
0.111275
-0.139783
-0.0695827
0.0980912
0.0646335
-0.0308617
-0.146607
0.112835
0.0906515
-0.0472697
-0.114464
0.0710821
-0.0446612
0.0576939
0.0215996
-0.0346323
-0.0426558
-0.0490739
0.0576301
0.0340998
0.115995
-0.112819
-0.00580252
0.00262639
-0.100787
0.140383
-0.0411284
0.00153243
-0.00612218
-0.01911
0.0174826
0.00774956
0.0694987
-0.0591987
0.0476018
-0.0579019
-0.0603951
-0.0493398
0.0830194
0.0267154
0.0171861
-0.100726
0.0577194
0.0258209
0.00517496
-0.0101883
0.0125416
-0.00752877
-0.00341658
0.00406161
-0.000874779
0.00022955
0.0463861
0.176633
-0.120153
-0.102867
-0.00460248
-0.0126984
0.0104963
0.00680472
0.0838393
0.0413744
-0.0754785
-0.0497352
-0.00644756
0.0068011
0.0172314
-0.0175849
-0.063707
0.00374968
0.064135
-0.00417805
0.0304554
-0.0621467
0.0537822
-0.0220909
0.0607032
0.0531155
-0.0597711
-0.0540475
-0.0128454
0.0144423
0.020317
-0.0219138
-0.000274898
0.00210466
-0.00268274
0.000852953
0.162635
-0.0957744
-0.0204747
0.0259138
-0.0122014
0.00900356
-0.022716
-0.0117685
0.0454906
-0.0288885
-0.00483347
0.0495788
0.0506375
-0.0576829
-0.0425337
0.175204
-0.0146143
-0.0222657
-0.138325
-0.00134815
-0.00177722
0.00203173
0.00109408
0.0486823
0.0530003
-0.0629288
-0.0387552
-0.164448
0.105807
-0.00647707
0.0651184
-0.0291545
0.0944372
-0.0525615
-0.0127211
-0.00390135
-0.00424351
0.00419007
0.00395472
0.00111674
-0.00489419
-0.02255
0.0263276
0.00559038
0.00145606
-0.00496146
-0.00208462
0.0635039
0.08749
-0.0414327
-0.109561
0.133216
-0.0465946
-0.0829713
-0.00364987
0.069808
-0.115144
0.104596
-0.0592598
0.0309682
-0.0289669
0.102387
-0.104389
0.0256258
0.0489201
-0.0118435
-0.0627024
-0.0533345
0.144719
-0.119381
0.0279964
-0.00773908
0.00137352
0.000544062
0.00582153
-0.0681364
0.0108416
0.0574394
-0.000144561
0.0410408
0.146769
-0.123387
-0.0644236
-0.0352591
0.0196425
-0.00442554
0.0200421
0.00890777
0.00699835
-0.00693429
-0.00897186
-0.00250956
0.0136581
-0.0129326
0.00178434
-0.00449445
0.00506852
-0.000573939
0.0182736
-0.0216585
-0.0251947
0.0285797
-0.025042
0.0169641
-0.024997
0.0330747
-0.0316443
0.0109413
-0.000430739
0.0211337
0.133419
-0.141785
-0.00743477
0.155398
-0.0116558
-0.0916254
-0.0521172
0.0225528
0.035055
-0.0198539
-0.0377538
-0.0226599
-0.040864
0.034974
0.0285499
0.097328
-0.0607991
0.103692
-0.140221
-0.0372642
0.0412799
-0.043538
0.0395222
-0.00268602
0.00211029
-0.00161764
0.00219342
-0.021658
-0.0260179
0.0332068
0.0144692
-0.115957
-1.58163e-06
0.0628696
0.0530885
-0.0111076
-0.0238566
0.0365775
-0.00161419
0.0533044
0.0577725
-0.0568545
-0.0542225
0.00506366
-0.0028725
0.00935281
-0.0115454
0.000951714
0.0018556
-6.89983e-05
-0.00273794
0.0569628
-0.107282
-0.0746157
0.124935
-0.118407
0.038799
0.0940311
-0.0144227
0.026952
0.0270001
-0.0256831
-0.028269
-0.00718342
-0.0225062
-0.072487
0.102177
-0.141892
0.0091872
-0.0201313
0.152836
0.0416468
-0.0473625
-0.0680751
0.0737907
-0.0069352
0.000555372
-7.65942e-05
0.00645634
0.00199906
-0.00144036
0.00129188
-0.00185061
-0.0850524
-0.0427719
0.0851444
0.0426799
0.123191
-0.104431
-0.00756755
-0.0111922
-0.0532552
0.000791303
-0.00319153
0.0556554
-0.00506781
-0.0700505
0.000219646
0.0748987
0.00776686
-0.0569724
0.00577332
0.0434322
0.0281122
-0.0351145
-0.00599401
0.0129964
0.0877664
0.0494825
-0.0485448
-0.0887041
-0.00392972
0.00457475
-0.0031373
0.00249169
-0.00868943
0.0115898
-0.100182
0.0972816
-0.048208
-0.00625916
0.00511394
0.0493531
0.102425
-0.0502423
-0.10484
0.0526572
0.0458954
-0.0854839
-0.131606
-0.00111409
-0.0034053
0.00499296
-0.000473461
-0.00129876
-0.000798606
0.00258451
-0.000487375
-0.0613836
0.0310592
0.0574245
-0.0270998
-0.0118288
-0.02361
0.0132459
0.0221925
0.0840496
-0.106083
-0.00553697
0.0275708
0.0234986
-0.0348455
0.00793463
0.00341226
0.02855
0.0148817
-0.10883
0.0653982
0.119547
0.023909
-0.098636
-0.0448198
0.0418687
-0.0567362
-0.0379687
0.0528362
0.0219507
-0.0493441
0.0466415
-0.019248
-0.0353286
0.00144943
-0.00351158
0.0373909
0.0521777
0.0720365
-0.0547982
-0.0694162
0.0384334
0.0359811
-0.0530103
-0.0214042
0.00207128
0.000963055
-0.00224197
-0.00079216
0.0588722
-0.0402519
-0.00512938
-0.0134909
0.0712274
-0.0526353
-0.00521265
-0.0133795
0.114645
-0.10783
0.0593767
-0.0661919
-0.0660031
-0.0489317
0.0388472
0.0760878
0.00748895
-0.0203039
0.0129753
-0.000160481
-0.00204377
0.00583785
0.00557465
-0.00936894
0.0276443
-0.0217732
-0.0909236
-0.068868
-0.0112288
0.0041346
0.075962
-0.00404387
0.0779691
-0.12726
0.00927311
0.00404727
-0.00884492
0.00552316
0.0254591
-0.0340357
0.00305345
0.0177062
0.132615
-0.102847
-0.0474727
0.032682
-0.0707875
0.0623914
-0.024286
0.00228261
-0.00532726
0.005824
-0.00277944
-0.0227131
0.0484989
-0.0582104
0.0324246
-0.0267706
-0.0881513
0.0871098
0.0278121
0.0418878
-0.0120745
0.00128878
-0.0311022
0.0879343
-0.0875288
0.0485094
-0.048915
-0.0363508
0.0028765
0.0221166
0.0113577
0.0864029
0.0103797
-0.028045
-0.0687377
0.000515768
0.00382715
-0.0028277
-0.00151516
0.0480818
-0.0705424
-0.0390441
0.0615046
-0.129097
-0.0225942
-0.00778233
0.159474
0.0394008
-0.101301
0.110534
-0.0486347
0.0421896
-0.0473459
-0.114368
0.119524
0.00478899
-0.0066792
0.00706232
-0.00517309
-0.0843665
0.06383
-0.0472481
0.0677846
-0.120138
0.0982885
0.0250217
-0.00317261
0.00729697
-0.135339
-0.0138499
-0.00366068
0.0076302
0.0424556
-0.046425
0.0258794
0.142669
-0.0529876
-0.00269894
0.00317602
0.000756061
-0.00123311
0.0513266
-0.0405602
0.0453447
-0.0561111
-0.0339963
0.0178515
-0.052045
0.0681899
0.00552377
-0.00565902
-0.00136309
0.00149843
0.126104
0.0618683
0.0143291
-0.202301
-0.151333
0.0150534
0.131869
0.00441052
0.000855294
-0.00223902
0.00149266
-0.0401944
-0.136266
0.111597
0.064865
-0.0108864
0.0181241
0.0256474
-0.0328846
0.00187995
0.0498773
-0.0577968
0.00603951
-0.0361519
0.0811154
-0.101445
0.0564811
-0.00257092
0.0386064
-0.012256
-0.0237796
0.0259896
-0.0343427
0.0439823
-0.0356292
0.000297146
-0.00172941
-0.0022027
0.00363478
-0.00524763
0.00282457
0.0325808
-0.0301577
-0.0848033
-0.0385325
0.0081517
0.115184
0.0276952
-0.0154408
0.00601913
-0.0306001
0.0704727
-0.07006
0.0301874
0.0391366
-0.0175477
-0.026675
0.00508607
-0.0139761
-0.0322179
0.0550664
-0.00887302
0.00226346
-0.0014971
-0.00357806
0.00281206
-0.00185956
0.000434574
0.0394763
-0.0380516
-0.00878456
0.0315119
-0.00726221
-0.0154651
-0.00270111
-0.00667554
-0.025952
-0.0253488
-0.0286447
0.0236663
0.0303272
-0.0029738
0.00377876
-0.00406456
0.00325964
0.129543
-0.0391088
-0.143627
0.0531928
-0.131918
0.0212084
0.0868661
0.023843
0.0344454
-0.0384208
-0.0212582
0.0252336
-0.116188
0.110656
-0.0154064
0.0209387
0.0922545
-0.0458185
-0.0321942
-0.0142418
0.0162249
-0.023349
-0.0874916
0.0946157
-0.00343296
-0.00414419
0.00367575
0.00311516
0.0718378
0.01329
-0.0882429
-0.0163327
0.0398031
-0.0364222
0.0129518
-0.0387508
0.0619625
0.0205665
-0.0437781
0.0525562
0.0157839
-0.0925936
0.0242534
-0.00581361
-0.0406713
-0.00677027
-0.00188771
0.0714973
-0.00563555
-0.063974
0.00360163
-0.00466774
0.00117905
-0.000112338
0.0111884
0.0870621
-0.0882989
-0.00995162
-0.0952795
-0.0730005
0.116452
0.0518278
-0.0487186
-0.108292
0.0575174
0.0994928
-0.0111924
0.103151
0.00221944
-0.0941787
0.0514471
-0.0637459
0.0618628
-0.0495639
-0.000288547
-0.0488383
0.0290268
0.0201
0.0143163
0.0388574
-0.0324056
-0.0207681
-0.0842717
0.0556216
-0.100306
0.128956
0.0893422
0.0666237
-0.130956
-0.0250105
-0.0584239
-0.071811
0.0686906
0.0615444
-0.0685927
-0.0864082
0.0553449
0.0996559
0.0785405
0.0119789
-0.035591
-0.054928
-0.0605896
0.0843037
0.0611453
-0.0848594
0.0329549
0.0684667
-0.0325265
-0.0688951
0.118991
-0.0608454
-0.087631
0.0294852
-0.00465627
0.0035126
0.00353576
-0.0256412
0.0436824
-0.0320176
-0.040087
0.0547132
0.0333445
-0.0479707
0.000991505
-0.00521792
0.00557462
-0.00134812
-0.00186057
0.00125882
0.000602644
-0.0577187
-0.0536458
0.0287783
-0.032022
0.0248378
-0.0215941
0.00268662
-7.90202e-05
-0.00260767
0.127393
0.000469872
-0.0424776
-0.0853849
-0.0359105
0.0456568
0.05866
-0.0684063
0.0439615
-0.0444501
0.0444359
-0.0439473
0.00438532
0.0614652
-0.0528282
-0.0130223
-0.0625834
0.0500003
0.0430385
-0.0473761
0.0366164
0.0263906
-0.0156308
0.0420328
0.0750301
-0.106029
-0.0110337
-0.0230277
0.00239571
-0.00583119
0.0264628
-0.00297619
0.00275262
9.51653e-05
0.000128512
-0.0631246
0.037372
0.0550216
-0.029269
-0.0426951
0.0581144
0.0184031
-0.0338229
0.0115973
0.00323607
0.0532608
-0.0112511
0.00441824
-0.0464279
-0.0593527
0.0780468
-0.115966
-0.0152232
0.0275867
-0.0297198
0.0173562
0.0227231
-0.0253308
-0.0185058
0.0211135
-0.104264
0.134836
0.0270771
-0.0576489
-0.0283806
-0.0194915
0.0262135
0.0362998
0.0754012
-0.0912074
-0.0204935
-0.0727511
0.0808932
-0.0349127
-0.0329299
0.044946
-0.0534178
0.0414006
-0.0422766
-0.0414214
0.0933945
-0.00969643
-0.0184351
0.035634
0.0219376
-0.058244
-0.0410212
0.0433347
0.0559306
-0.0768194
-0.136622
0.165419
0.0480249
-0.0322938
0.0130588
0.0389676
-0.0197325
0.0853557
-0.107943
0.0664018
-0.0438146
0.00303823
0.0457144
-0.0126015
-0.036151
-0.0636922
0.0218956
0.0712324
-0.0294358
-0.0172737
-0.00534411
0.0143157
0.00830251
0.0854393
0.0473691
-0.0710922
-0.0617161
0.00830512
0.0202679
-0.0586245
0.0300515
0.0752683
-0.0737335
-0.000585774
-0.000948981
-0.0625659
0.0498785
-0.0112446
0.0239321
-0.013335
0.0799182
0.0655337
-0.132117
-0.0421393
0.00102859
0.00519643
0.0359138
-0.0146711
-0.0848642
0.0788677
0.0206675
0.00463613
-0.0204785
0.0133809
0.0024615
0.0344355
-0.0632324
0.0396894
-0.0108925
0.0491731
0.0727636
-0.0704776
-0.0514594
-0.0040878
0.0048085
0.00922195
-0.00994224
-0.000801525
-0.00800007
0.00880117
-0.0620073
0.0654395
-0.0227992
0.0193669
-0.00134431
-0.0011291
0.00247393
-0.0655118
0.102797
-0.0497978
0.0125125
-0.0173385
0.0133607
-0.0353545
0.0393322
-0.0104547
-0.114095
0.0485707
0.0759787
-0.0156301
0.112401
-0.00627944
-0.0904913
0.00192404
0.00516503
-0.00149845
-0.0712669
-0.0118339
0.0635557
0.019545
-0.0648501
0.0963222
-0.0973773
0.0659053
0.0464027
-0.0486607
-0.0437471
0.046005
0.0363164
-0.0593894
0.130765
-0.10769
-0.0682558
-0.0738182
-0.00940032
0.151474
-0.0257381
-0.0412476
0.0366501
0.0303356
0.0181609
0.0679092
-0.0670493
-0.0190208
0.0162633
0.0574975
0.0053057
-0.0790666
-0.0032471
-0.0177105
-0.0264638
0.0474216
0.13674
-0.114726
0.0200188
0.000939997
0.00206524
-0.000741475
-3.92142e-05
0.0037861
-0.00374667
0.088056
0.0695812
-0.150326
-0.00731122
0.00720657
-0.0563893
0.00704255
-0.002967
0.00468912
-0.00468185
0.00295952
-0.0783759
0.0722028
-0.0482872
0.0544603
-0.00187343
0.00238847
0.00378343
-0.00429856
-0.114116
0.108088
-0.0426907
-0.00288038
-0.000219046
0.0833204
-0.0843217
-0.0504007
0.051402
0.00745711
-0.00769968
-0.006773
0.00701536
-0.106645
0.10966
0.0276359
0.00683698
-0.0406071
0.0385164
-0.00474637
-0.00126263
-0.00178183
0.00289092
0.000153555
0.0670449
0.0801312
-0.0394013
-0.107775
0.035598
-0.0280124
-0.0431658
0.0355802
-0.00460487
0.00952755
0.000283232
0.0457026
-0.0520263
-0.0363721
0.164998
-0.153709
0.00771775
-0.0190063
0.0893353
0.0504212
-0.0793649
-0.0603918
0.0131708
0.00193272
-0.0110845
-0.00401891
-0.0368112
0.135339
0.0641067
0.125164
0.0158305
0.00127972
0.0644819
-0.0542027
-0.0932412
0.082962
-0.027901
0.0216679
0.00751618
-0.00128307
-0.120341
0.0403738
0.121008
-0.00581718
-0.00273149
0.00119427
0.00735441
0.00525952
-0.0403892
0.0326465
0.00248306
-0.028007
-0.127334
0.0149811
0.140359
-0.0349247
-0.000821845
-0.0329882
0.0687347
-0.00867286
0.00550354
-0.00151892
0.00468874
-0.0507127
0.0492317
0.0396235
-0.0381426
0.00361752
-0.0329746
-0.0230527
0.0524098
0.041261
0.0166519
-0.0498719
-0.00804085
-0.0492216
0.0175383
0.0683319
-0.0366486
0.000726934
-0.00317574
-0.00194312
0.00439191
0.0973831
-0.131205
-0.069427
0.0915871
0.0238854
-0.110691
-0.0047814
0.0690039
-0.0415969
0.0251492
0.024865
-0.0283612
-0.0126992
0.0161951
-0.074419
0.0146336
0.00455858
0.0552268
-0.0375078
-0.0112641
0.0247395
0.0240324
-0.0252738
0.0350354
0.0190167
-0.0918182
0.11797
-0.0408544
0.0147032
0.0190473
-0.022577
0.000524205
0.00300494
0.0565353
-0.104548
-0.000400958
0.0241166
0.00837108
-0.0320868
0.055236
0.0154909
-0.0547344
-0.0159923
-0.0763468
0.0163789
0.0755857
-0.0156175
-0.0458955
0.0383208
0.0332005
-0.0481637
0.022008
0.157613
-0.131457
-0.0036543
0.00155747
0.000294693
0.00180238
0.0552327
0.0283852
-0.054263
-0.0293548
0.0455027
-0.0368161
-0.0202259
0.0115394
0.000987683
0.00525564
-0.00628316
3.99015e-05
0.0252179
-0.0132061
0.037567
0.0195414
0.0446033
-0.0744404
0.0102956
0.0314358
-0.0331599
-0.110099
0.111823
0.00216024
0.00484903
-0.136107
-0.0262912
0.151601
-0.0835551
-0.0417544
0.0951165
-0.0808958
0.0880881
-0.102309
0.0738029
-0.0400951
-0.0694664
0.0357588
0.0139799
0.0226453
-0.0207289
-0.0158963
0.11976
-0.0630246
0.0919541
-0.0108275
-0.0159336
0.00757825
0.0191827
-0.0694026
-0.0117973
0.0156358
0.0655641
0.0589818
-0.0104201
-0.0402381
-0.0083236
0.0262995
-0.0258295
0.0155021
-0.0159721
-0.0320354
-0.0492498
0.027806
0.0534792
-0.0483829
0.0569764
-0.0336677
0.0250743
0.00439692
-0.00644552
-0.0216925
0.0237411
0.0140599
0.0422364
0.00622055
-0.0625169
0.0426874
0.134837
-0.0800518
-0.0974729
-0.0471659
-0.0546838
0.0512088
0.0506408
0.011199
-0.10017
0.0127533
0.076217
-0.04721
0.104475
0.0280332
-0.0852987
0.026803
0.0455332
-0.029544
-0.0427922
-0.115266
0.108846
0.0664154
-0.0599945
-0.123627
-0.0439716
0.139592
0.000973431
-0.0044124
0.000620936
0.0028181
0.048155
-0.0356828
-0.0412711
0.028799
-0.0142746
0.00787959
-0.00679867
0.0131937
0.0229326
0.036109
-0.0239132
-0.0351284
0.0499742
0.00165342
-0.0980985
0.0464709
-0.091903
0.041449
-0.00913642
0.0595904
-0.0948969
0.0136339
0.0939654
-0.0127024
0.00383467
-0.000246117
-0.00195553
-0.00163304
0.00376726
0.00509558
-0.00373518
-0.0051277
-0.020841
-0.0375265
0.0389904
0.0193771
-0.00106117
-0.0431076
0.0308099
0.013359
0.0206643
-0.00593878
0.00672539
-0.0214509
0.0848902
-0.0879689
-0.0384107
0.0414894
-0.0407161
0.0243684
-0.0278036
0.0441513
-0.0126643
-0.0127619
0.00239832
-0.0737802
0.107751
-0.0800919
0.0461209
-0.0732912
0.0402389
0.0616023
0.0918294
0.0388279
-0.0795221
-0.0511354
0.0270874
0.0172305
-0.109015
0.0646974
0.0353955
-0.0793596
0.0672296
-0.0232655
0.00953538
-0.0103877
0.0213751
-0.0205228
0.00348729
-5.79174e-05
-0.00411786
0.000688385
0.0118853
0.0543297
-0.0569219
-0.00929308
0.0800648
0.0329601
-0.05919
-0.0538349
-0.0569213
0.0728596
-0.0565697
0.0406315
0.00761328
-0.00961311
-0.00218939
0.00418924
0.00053948
-0.00134933
-0.00166609
0.00247594
-0.0634383
0.0995906
-0.056775
0.0206227
0.0634254
0.0503227
-0.0623009
0.0385406
0.0821095
-0.04849
-0.0721602
0.086492
-0.0853842
0.0791839
-0.0802919
0.134229
0.061314
-0.0696443
-0.125898
0.0353237
-0.0229918
0.0058744
-0.0182059
0.0146184
-0.00589985
-0.0273171
0.0185987
-0.064684
0.0204897
-0.0302247
0.060976
0.0108431
8.16825e-05
-0.0719008
-0.120736
-0.00175546
0.134755
-0.0122628
-0.103751
0.124466
0.0646408
0.00420505
-0.00427003
-0.00169952
0.00176446
-0.0769174
-0.0276881
-0.000871609
0.105477
0.0848206
-0.0586853
0.0689812
-0.00860777
0.00148869
0.00676012
0.000358994
0.00288677
-0.00130441
-0.00300093
0.0014193
-0.0941674
0.0617838
0.0676947
-0.0353111
-0.056725
0.104841
0.056978
-0.105094
-0.0354845
0.0300345
-0.0793533
0.0180324
-0.0138141
-0.0305068
0.0262894
-0.115986
-0.0041042
-0.00727368
0.127364
-0.00350264
0.00286094
0.00510453
-0.00446294
-0.00423597
-0.000775018
0.00388608
0.00112503
-0.000747481
0.00511506
-0.0051062
0.000738365
-0.030463
0.0160827
-0.0196394
0.0340197
-0.0415807
0.0384807
-0.00260917
0.0057091
0.124487
0.0160398
-0.126982
0.114994
-0.0512676
0.0516248
-0.115352
0.0283216
-0.0101947
0.0146236
-0.0327496
0.119571
-0.0170006
-0.0926007
-0.00996953
0.0799165
-0.108867
0.114602
-0.085652
-0.0315059
0.0184127
0.0146605
-0.00156749
0.0296426
-0.0309671
0.0626361
-0.0613116
0.030929
0.147107
-0.0499701
-0.128066
0.00209335
-0.0030046
0.00302796
-0.00211638
-0.0275472
0.0474073
0.121477
-0.141337
-0.0280787
0.0538806
-0.0491364
0.0233345
-0.127698
-0.0500892
0.0574464
-0.0804012
0.1078
-0.111658
0.0842593
0.068601
0.10074
-0.0667464
-0.102595
-0.0480849
0.128873
-0.122036
0.0412487
0.00359817
-0.00294015
-0.000328299
-0.000330408
-0.00834114
-0.0104408
0.0128914
0.00588972
0.0204024
-0.0348036
-0.089863
0.00914693
-0.000769385
-0.00758099
-0.000797449
-0.0737162
-0.0268556
0.0697412
-0.00550081
0.00772639
0.000187057
-0.00241247
0.0126773
-0.090899
-0.0163626
0.0945844
-0.0429625
0.0543784
-0.00628141
-0.0051345
-0.0768734
0.0812931
-0.0700917
0.0656722
0.122862
-0.0251096
-0.105239
0.00748695
0.0900057
-0.0980603
0.0513196
-0.0432648
0.0467944
-0.041653
-0.119257
-0.00146447
0.00350112
0.00392446
-0.00596106
0.0014045
-0.000457424
0.00265081
0.0412668
-0.117659
0.0770354
-0.000642757
-0.00182023
0.00199163
0.0019223
0.0110414
0.00589957
-0.000323893
-0.0166171
0.121651
-0.114261
-0.0299847
-0.0362736
0.045531
-0.033051
0.0237937
-0.0963026
0.0748103
-0.0317671
0.0532594
-0.0156917
0.0484636
-0.0468416
0.0140697
-0.0207799
-0.042057
0.0821118
-0.0192749
0.031553
-0.00949022
0.00837964
-0.0304417
0.0212305
-0.034326
-0.00983407
0.022929
0.00497769
0.0485289
0.00395353
-0.0574602
0.0618659
-0.0672323
0.0379042
-0.0325378
0.0389195
-0.0375121
0.139652
-0.141058
-0.050326
0.0706232
0.0656222
-0.0859178
-0.0250076
0.0241761
-0.00142033
0.00225185
-0.0211961
-0.0292005
0.028149
0.0222481
0.0615545
0.0203605
-0.0399689
-0.0419461
0.00225121
0.0171236
-0.0147793
-0.00459512
0.0189714
0.00849463
-0.00464863
-0.0228174
-0.0631875
-0.10443
0.071315
-0.0217759
-0.0504368
0.0143185
0.0578946
0.0122703
0.000665799
0.0274678
-0.0404053
0.012461
0.021583
-0.0195396
-0.0145044
0.106368
-0.105351
0.0528348
-0.0538521
0.0120997
0.0394016
-0.000356197
-0.0511451
0.0110019
0.108461
-0.104581
-0.000524678
-0.0674356
0.0723561
0.00529393
0.0129009
-0.0136695
-0.00452534
-0.0330903
0.02288
0.021416
-0.0112058
0.0491877
-0.031813
-0.0412613
0.0238866
0.0941891
0.00636127
0.0747592
-0.175309
-0.024101
-0.12547
0.0258235
0.123748
0.0535389
-0.00604311
0.00617784
-0.0536757
-0.0445283
0.0656621
-0.0721531
0.0510193
0.00149167
-0.00783673
-0.000590096
-0.0016423
0.000614978
-0.00149224
0.00251927
-0.109217
-0.0285592
0.108739
0.0290367
-0.104863
0.149165
0.0126606
-0.00236583
0.00346214
0.00234167
-0.00343833
-0.00368475
-0.00227722
-0.0428977
0.0488607
0.0466984
-0.0813024
-0.0146215
0.0492256
-0.0265251
0.136619
-0.165249
0.0551546
-0.0923614
0.00785028
0.0923177
-0.0078066
0.0289049
-0.0330862
0.004333
-0.000152085
0.112232
0.019596
-0.131125
-0.000703573
-0.0792507
-0.0507927
0.0839246
0.0461188
-0.114407
0.154974
-0.0495679
-0.078393
0.02108
0.0806769
-0.0233637
-0.00280916
0.0386149
-0.00277142
-0.0330343
0.0319661
-0.0266475
-0.0255441
0.0202254
0.143632
-0.0363529
0.0204626
-0.127741
-0.0608774
-0.0547205
0.0430033
0.0725945
0.0747501
-0.0984572
0.092458
-0.0687509
0.146422
-0.0362847
0.00884819
-0.118985
-0.00456467
0.0445928
0.0451953
-0.00484547
0.00198892
-0.0423388
-0.00336079
-0.0118797
-0.000672634
0.0159138
0.0398606
-0.0408725
-0.0411013
0.0421132
0.0273038
0.118177
-0.103291
-0.00205229
0.000711973
0.000955457
0.00038539
-0.0315487
0.0577265
-0.135394
0.0218998
-0.0343609
0.0180629
-0.00560183
0.0981126
0.100637
-0.0941693
-0.104581
0.0222203
-0.0173072
-0.0636667
0.0587533
0.028037
-0.081627
-0.017847
0.0714365
-0.00813074
-0.0729978
-0.00965528
0.0907838
0.0870197
-0.0586071
0.0588696
-0.0872821
-0.122288
0.133345
0.0198714
-0.0167608
0.0859561
-0.0828084
0.0136131
0.0111551
0.0507956
-0.0478909
0.0258302
-0.0262949
-0.0194961
0.0199609
0.0276493
0.0206664
-0.0253832
0.0695004
-0.0421779
-0.0607339
0.0334114
-0.0765613
0.0559686
0.0359767
-0.0153844
-0.0895133
0.101476
0.0817853
-0.0937476
-0.000601562
-0.0165107
0.00523348
0.0118796
0.106312
0.0526861
-0.0514671
-0.107531
-0.0488869
0.0378176
-0.00720982
0.0182791
0.00314439
-0.0877469
0.0843021
0.00030036
-0.00281773
-0.000313722
-0.000859064
0.0039904
-0.102696
0.00126547
-0.00111095
0.102542
0.00520486
0.0206629
0.00392578
-0.0297937
-0.0278958
0.0869185
-0.128795
0.0697728
0.0257549
-0.0632206
-0.0243995
0.0618652
-0.0933884
0.059274
-0.0189776
0.0530921
-0.0766854
-0.0210456
0.0452752
0.0524558
-0.0863718
0.0683677
-0.033676
0.05168
0.137569
-0.0815554
-0.165019
0.109005
-0.0421996
0.0464029
0.0449694
-0.0469161
-0.00244283
0.0691734
-0.0198145
-0.16765
0.044784
0.125027
0.0126322
-0.0206197
-0.0283634
-0.070287
-0.0161627
-0.00170154
0.0688806
0.144246
-0.108459
-0.104668
-5.97824e-05
-0.00373791
0.0047711
0.0203736
-0.0162084
0.02353
-0.0580148
0.00108858
0.0384141
0.0185121
-0.0140706
0.0447209
0.0120521
-0.0427024
0.0813126
0.0818709
-0.109964
-0.0532193
-0.0342429
0.038208
-0.0184882
0.0145231
0.0380167
-0.00993531
0.0233941
-0.0514755
-0.0355109
-0.0160921
0.0331678
-0.000401218
-0.00354625
0.000811996
0.00313532
0.0815866
-0.143084
-0.0444104
-0.0338328
0.0273069
0.0509363
-0.0188827
0.0374467
-0.086705
0.0681409
-0.00886627
0.0511714
0.0658723
-0.0635852
-0.0534585
0.107811
-0.0907261
0.0524136
0.0113381
-0.0181958
-0.00741695
0.0188592
-0.118449
-0.00273425
0.102325
0.0791133
0.0693594
-0.0566433
-0.00219911
0.00480092
-0.00415104
0.00154876
-0.102186
0.0781493
-0.0336133
0.0576501
-0.077858
0.114835
-0.0618868
0.0249094
0.031247
-0.132123
0.11334
-0.0124611
0.054128
0.0356149
-0.0189716
-0.0707713
-0.0653514
0.00249724
0.0292565
0.033598
-0.00248946
0.00123489
-0.103268
0.104522
-0.0226835
-0.0153743
0.0180454
0.0200125
-0.00541926
0.0112539
0.0180401
-0.0238741
0.0831525
0.00409065
0.0225146
-0.109758
0.0049247
-0.00878407
0.00446683
-0.000607194
0.0975498
-0.0637641
0.0513017
-0.0850874
0.0395258
-0.0229154
0.0213689
-0.0379794
-0.0638122
0.0269816
-0.0410274
-0.032448
0.030181
0.000956282
0.00131058
0.0491819
-0.0983958
-0.0381691
0.087383
-0.0346076
-0.0136321
0.0342267
0.0140129
-0.0490937
-0.0291948
0.00706085
-0.0226963
0.00471353
-0.0144654
-0.149202
0.00230047
0.122801
-0.000925577
0.00189653
-0.0593629
0.058392
0.00490315
0.00463795
-0.000633355
0.0680593
-0.0630309
0.0762842
-0.0397144
0.0186854
0.0415085
-0.0204794
-0.000996701
0.00136228
0.000586324
-0.0429775
0.0478606
-0.0174911
0.012608
-0.11653
0.0549156
0.0967105
-0.0350965
-0.0240169
0.0197724
0.0159922
-0.0117479
0.125298
0.0474502
-0.0148092
-0.157939
0.00263676
-0.00169868
-0.000938444
0.154437
-0.0334602
-0.0257893
-0.095187
-0.0513747
0.0391182
-0.0021004
0.0143575
0.0519361
-0.0459637
0.0486594
-0.0546317
0.0121494
-0.00939132
-0.0145866
0.00518693
-0.00167669
-0.00811237
-0.00837921
0.00738644
-0.00664791
0.00764061
-0.0625975
-0.0608382
0.0725014
0.0509343
0.0406826
-0.0400687
0.0209004
-0.00549545
0.125764
-0.141169
-0.0455335
0.0352216
0.0099416
0.000370049
0.000138854
0.00319852
-0.00226131
-0.00107627
0.0666446
0.0462748
-0.0867781
-0.0261414
-0.0834472
-0.0538534
0.0586324
0.0786681
-0.133131
-0.0063039
0.0407836
0.0986514
0.00328935
-0.00175213
0.00364994
0.0225346
0.0250207
-0.0317587
-0.0157966
0.0494985
0.0513623
-0.0521793
0.0869401
-0.0919364
0.0930523
0.00563282
0.00193566
-0.00816966
0.141363
-0.0489879
-0.143671
0.0512959
0.0553992
-0.0694255
0.0135002
-0.00139011
0.00312739
-0.00335243
0.00161506
-0.0773061
0.110036
0.0216347
-0.0543645
0.0118189
-0.015196
-0.0949472
0.0983243
0.0550287
-0.070565
-0.0719777
0.087514
-0.0260085
0.00967555
0.0245041
-0.00817106
0.0343701
-0.0927569
-0.0507249
0.109112
0.0287628
-0.0273991
-0.00973236
0.00836879
0.016297
-0.0177585
-0.0419032
0.0433647
-0.0421375
0.0612213
0.0563979
-0.0754818
0.00559392
-0.0054255
-0.00496426
0.00479573
0.035866
-0.0461011
0.0295569
-0.0193215
-0.0625111
-0.0246081
0.0779216
0.00919781
0.0183801
0.0436156
-0.0427513
-0.0192445
0.0160963
0.0474544
-0.0451705
0.0660584
-0.0560722
-0.0449546
0.0349684
-0.0635572
0.0676372
0.0727825
-0.0768626
-0.059814
-0.0107683
0.0640769
0.00650535
0.0184714
-0.0380642
0.0687805
0.00310328
0.0596661
-0.0522297
-0.0105394
0.0103211
0.0168059
0.0452965
-0.0724234
-0.0287026
0.025223
-0.032794
-0.0735654
-0.0757056
0.0758022
0.0734688
0.071178
0.0681909
-0.100637
-0.0387318
-0.0904205
0.0894331
0.0714087
-0.0704214
0.0489592
-0.0573985
-0.00242879
0.0108681
-0.0671076
-0.0821603
0.0727066
-0.00310764
-0.00122761
0.00294512
0.0688706
0.0834896
-0.111986
-0.0651184
0.0493514
-0.0228448
0.0386118
0.0533088
-0.0265725
-0.0842457
0.0575095
-0.0756653
0.0169469
0.0819426
-0.0232242
-0.0410454
-0.0207857
0.0424872
0.0193438
0.0126911
-0.133167
-0.035082
0.132719
0.0370958
-0.0284516
-0.072101
0.0384916
-0.0387279
0.0679861
0.0638496
-0.067416
-0.0644197
-0.0552269
0.0521843
0.0142169
-0.0176416
0.031193
-0.0277679
0.00377472
-0.00554654
0.0341394
-0.0323677
0.124313
-0.0206557
0.0613409
-0.0541909
0.145201
0.043574
-0.134584
-0.0114715
-0.0103485
0.0133848
0.00843519
0.0849537
0.0957374
-0.0769342
-0.103757
0.0176743
-0.00403777
0.0011262
-0.0147625
0.126433
-0.0551761
-0.16094
0.0896829
-0.0671979
0.0292121
0.0585061
-0.0205208
0.118919
-0.00939689
0.0249048
-0.00124145
-0.0226488
-0.00785582
0.0317461
-0.0453965
0.0365094
-0.0169509
0.0258381
0.013313
-0.00896967
-0.00548057
0.00113752
0.18416
-0.0378855
-0.154218
-0.14895
-0.0423685
0.03369
-0.0589725
-0.00949159
0.0703489
-0.00188483
0.0374993
-0.045274
0.00790486
-0.000130143
0.00462376
0.035638
-0.00612268
-0.0341378
-0.00286449
0.00253077
-0.00106878
0.00140237
-0.00838908
-0.0102933
0.0130854
0.00559703
0.00722047
-0.0130938
0.0137529
-0.0720155
-0.111556
0.136225
0.000421234
-0.00248182
0.00374689
-0.00168633
0.0374594
0.0325636
-0.0414137
-0.0286092
0.0134
-0.00599214
0.0102665
-0.105675
0.119813
-0.00231895
-0.0676151
-0.0096864
0.00701453
0.0151478
-0.0360175
0.0593082
-0.038439
0.00602755
-0.0110792
-0.00237201
0.00742311
0.00720268
-0.0552052
-0.103331
0.10883
-0.114796
0.0411116
-0.0351453
-0.0358196
-0.0447907
0.0473221
0.0332882
-0.0651755
0.0752962
0.00147671
-0.0521013
0.0534074
0.0047091
-0.00601519
0.0583116
0.00947491
0.00254911
-0.0703356
0.00269742
-0.000376367
-0.00268485
0.000363736
-0.0541614
0.0565022
0.0118764
-0.00439402
-0.0730863
0.0227314
0.0547488
-0.0346686
-0.134504
0.00152184
0.0648189
-0.0399797
0.0727106
0.0341328
-0.0471102
0.11085
-0.0978724
0.0315944
-0.000147504
-0.0430549
0.0116081
0.0172445
0.0837078
-0.08214
-0.0188121
0.0546722
-0.051242
-0.0874421
0.0840118
0.0521681
0.0960807
-0.0253871
0.0704101
-0.0634146
0.072921
0.0891762
0.0157664
-0.00108137
-0.103861
0.0274495
0.0159343
-0.0244874
-0.0188964
0.104878
-0.0371097
-0.00629743
-0.0614711
0.011772
-0.0276915
-0.137866
0.0625919
-0.0170961
0.0923706
0.0435219
-0.0666021
-0.0478885
0.0709687
0.147618
-0.0247857
-0.107779
0.000200738
0.00262506
-0.00282535
-0.00791435
0.0584323
-0.0571606
0.00664258
-0.0133499
-0.0490957
0.0220565
0.0403891
0.0505826
-0.0470075
-0.0976054
0.0940298
-0.0870931
0.0460847
0.0921383
-0.05113
0.0421123
-0.0634148
-0.104494
0.125796
0.120156
0.0284923
-0.12188
-0.0267685
0.0293205
-0.0929823
0.000223508
-0.0729211
-0.0101255
0.0687284
0.0143182
-0.110578
0.0791488
0.0167582
-0.00126678
0.00171222
-0.00216392
0.0017185
-0.00670203
0.0104809
-0.00910493
0.00532639
-0.107748
-0.0577258
0.105066
0.0604074
0.0066311
-0.00580495
-0.009252
0.00842595
0.0245723
-0.0170119
0.0127265
-0.0202869
-0.0624095
0.0312305
-0.02087
0.052049
-0.0857202
0.128103
0.0420252
-0.0844076
-0.102029
0.0835733
0.115839
-0.0433238
-0.0162087
0.0454619
-0.00388762
0.0378962
0.0755864
-0.109595
-0.011594
0.059437
-0.0340571
-0.0137859
-0.0319577
-0.0290528
0.0555465
0.00546396
0.0172172
-0.0170167
-0.0234085
0.0232079
0.00754654
-0.0435393
0.0456089
-0.00961611
0.0310734
-0.0161633
-0.0450384
0.0301284
0.0186226
-0.0338764
0.13541
-0.106652
-0.00829965
0.0501016
0.0840335
0.120118
-0.121973
-0.0821791
0.115821
-0.00241579
-0.131611
0.0182057
-0.0259482
0.0257586
0.0321558
0.0195536
0.0229505
-0.0162621
-0.0262419