/*--------------------------------*- C++ -*----------------------------------*\
  =========                 |
  \\      /  F ield         | OpenFOAM: The Open Source CFD Toolbox
   \\    /   O peration     | Website:  https://openfoam.org
    \\  /    A nd           | Version:  7
     \\/     M anipulation  |
\*---------------------------------------------------------------------------*/
FoamFile
{
    version     2.0;
    format      ascii;
    class       volVectorField;
    location    "300";
    object      U;
}
// * * * * * * * * * * * * * * * * * * * * * * * * * * * * * * * * * * * * * //

dimensions      [0 1 -1 0 0 0 0];

internalField   nonuniform List<vector> 
11372
(
(12.2456 1.95377 0)
(-0.481371 -1.2447 0)
(7.34821 -2.63117 1.25362e-17)
(-2.00698 -0.297294 1.03663e-20)
(11.1513 0.249412 0)
(-0.609558 -1.26283 0)
(11.7373 1.35847 -2.25482e-18)
(12.8354 1.47661 -7.96586e-18)
(11.6036 1.91461 0)
(5.95636 5.74673 0)
(11.5072 0.989217 -1.91288e-19)
(6.47258 2.42507 1.06895e-18)
(12.488 -2.43015 -1.67698e-18)
(10.6598 1.52628 2.20731e-19)
(8.09401 -0.270687 0)
(-1.91349 -0.0926079 5.91532e-18)
(12.2377 0.708696 6.48882e-18)
(11.8362 2.02641 -2.52059e-18)
(9.73288 1.93231 -7.15714e-19)
(9.67211 0.996679 -6.88492e-18)
(2.02649 0.541639 -6.16725e-18)
(10.7322 0.500898 3.0853e-18)
(8.25427 -8.7943 6.32436e-19)
(0.84088 0.42685 1.99294e-17)
(11.7093 0.583648 9.8707e-19)
(6.87442 1.55339 -1.95163e-19)
(-0.822236 -0.465196 -3.66811e-21)
(10.3385 2.17083 -2.99299e-19)
(9.86242 0.871354 9.08293e-18)
(9.78775 0.987095 0)
(9.63654 1.75252 -1.92181e-18)
(9.95454 0.854145 -5.03918e-20)
(11.2908 0.137614 -2.50986e-18)
(10.7362 1.74175 -1.58864e-19)
(3.192 1.92459 -2.74445e-20)
(10.2165 1.19217 -2.95557e-19)
(11.0399 0.696481 2.0605e-18)
(10.9548 1.87236 3.19686e-18)
(12.1304 0.441921 -4.84191e-18)
(11.6307 2.94848 -1.10267e-17)
(12.8922 1.70634 1.26158e-17)
(9.88995 0.864185 2.58551e-18)
(10.7719 1.22335 0)
(6.01546 -0.0586038 -6.02443e-18)
(10.2433 0.196385 7.43375e-18)
(12.4564 1.73686 -5.27849e-18)
(11.445 -0.116963 -1.42048e-18)
(2.06507 0.939232 -4.84546e-18)
(-0.54925 -2.14547 -5.55095e-18)
(11.2039 0.378938 -2.70045e-18)
(7.91185 0.957634 3.78913e-18)
(11.611 0.993748 -6.63749e-18)
(5.98496 -5.05967 5.78875e-18)
(9.11888 -0.315079 8.06317e-18)
(9.81995 1.68793 0)
(11.4134 1.74165 -2.9095e-18)
(5.86592 1.80626 1.52085e-17)
(-0.469567 -1.79611 -1.12636e-17)
(11.2353 0.343974 -4.69543e-19)
(7.01475 0.214438 0)
(12.2009 -4.00303 -2.71942e-18)
(8.16949 -0.50906 0)
(10.3101 1.2591 4.54555e-19)
(-0.267373 1.01508 -1.94212e-17)
(6.63897 2.04235 -5.55052e-19)
(10.4497 1.29764 -1.56166e-18)
(12.3222 2.13116 3.20158e-18)
(-1.75841 -0.32395 -3.58133e-18)
(7.0425 -4.87277 8.57529e-18)
(1.73115 0.609247 0)
(10.909 0.415691 -1.70515e-18)
(11.2538 1.08089 -2.31418e-18)
(10.9775 0.838911 -2.00639e-20)
(11.6267 0.580446 3.00886e-18)
(12.4895 2.83202 3.30768e-18)
(9.92708 0.90313 6.08547e-20)
(-2.26515 -0.240746 -4.05799e-18)
(10.5544 1.98957 6.91557e-19)
(9.9437 0.810152 -6.97109e-18)
(13.6653 2.68753 0)
(-2.46582 -0.193249 -4.95588e-18)
(3.69002 -5.63999 -8.35696e-19)
(0.723936 -2.33763 -4.54899e-17)
(8.91168 -3.55732 -1.67736e-18)
(16.2664 -1.21826 -6.3024e-18)
(11.2547 8.8941 6.48109e-18)
(10.1423 1.15705 0)
(11.3885 1.80995 -2.56949e-20)
(8.92924 0.740303 -3.47008e-18)
(13.122 4.71792 -7.71882e-18)
(10.9237 0.702161 -1.69079e-18)
(10.2227 -0.761221 -1.00052e-19)
(-1.01004 -1.0848 0)
(9.56969 -2.82741 1.28117e-18)
(10.5027 0.0397801 3.14894e-18)
(3.58552 1.28835 1.4702e-18)
(12.3283 1.23934 1.66383e-17)
(1.47694 1.0646 -2.62351e-19)
(-0.45045 0.461488 8.84969e-18)
(10.4258 1.34725 1.58515e-18)
(10.0347 0.447063 3.62926e-18)
(8.36149 -0.224513 9.41689e-18)
(9.92283 0.596722 5.55092e-18)
(11.047 0.473798 8.94535e-19)
(9.72514 0.346708 -6.11344e-18)
(1.90354 2.3723 1.38482e-17)
(-0.21193 -1.26729 -1.52719e-17)
(9.87287 0.593519 -1.48326e-17)
(10.3292 1.49227 -3.57821e-19)
(9.11088 0.704973 0)
(10.297 1.98026 -7.1031e-19)
(8.79845 0.247051 1.93445e-18)
(8.95049 -6.87999 -5.10925e-19)
(9.81083 1.22189 -7.12843e-18)
(-0.910375 0.301045 8.9037e-18)
(10.0745 0.45341 -4.5787e-19)
(13.0893 0.554986 2.65226e-18)
(9.99832 1.13696 0)
(10.6987 1.53156 0)
(-0.687166 -0.413613 -8.84021e-18)
(-0.447584 0.290102 2.88628e-18)
(12.8595 1.21076 2.06262e-17)
(2.08436 0.00923393 5.63764e-18)
(10.1479 1.55243 1.34205e-18)
(7.39058 -0.382291 3.06982e-18)
(9.76233 0.916833 3.159e-18)
(11.717 0.940675 1.93622e-18)
(12.6469 0.640588 5.85128e-18)
(10.8669 3.04474 -2.64446e-19)
(13.1204 2.28444 -6.60246e-19)
(12.1833 1.71008 -1.51397e-17)
(11.4018 3.53171 7.79872e-19)
(-0.865547 -0.722752 -2.10808e-17)
(12.7076 -1.16159 1.08741e-18)
(12.418 0.966844 0)
(11.0655 1.08337 7.41934e-18)
(11.6963 1.86911 -4.5497e-18)
(2.10542 -0.732454 -6.48449e-19)
(1.76662 4.2312 -1.27114e-17)
(9.89033 0.616639 0)
(6.33612 -0.471719 1.00954e-20)
(9.93331 0.907797 0)
(3.05018 0.477378 5.87379e-18)
(8.61311 -4.92943 -1.56587e-18)
(11.1426 0.252125 -3.358e-20)
(12.7056 1.24219 -7.37041e-20)
(-1.70752 -0.514196 4.32049e-18)
(9.53231 2.01728 0)
(9.66691 1.61227 0)
(12.7421 0.540835 5.34902e-18)
(10.6559 0.0814961 -1.45215e-18)
(10.8234 7.15828 1.77207e-18)
(11.9689 0.0627754 4.50079e-18)
(-0.920354 -0.950189 0)
(10.0111 1.50211 -3.72272e-18)
(10.4929 0.7521 -4.2625e-19)
(11.5404 1.58114 -3.04011e-18)
(11.2806 1.47332 -4.26774e-18)
(0.86563 0.897574 0)
(9.67641 0.271702 -1.69189e-17)
(11.2275 0.560632 1.93401e-19)
(11.0666 0.486076 0)
(13.0069 1.80436 7.50488e-18)
(9.95032 0.852657 2.13703e-17)
(-1.01835 1.72383 4.08747e-18)
(11.8828 -1.07774 0)
(12.6085 2.06668 6.03354e-18)
(-2.14667 0.00160755 0)
(10.9961 0.567363 1.75185e-18)
(10.6361 0.955863 -5.59535e-20)
(-0.507318 -0.421038 4.23312e-18)
(10.4989 0.501227 0)
(7.69374 0.302519 -6.59561e-18)
(12.4438 3.36169 -6.50618e-18)
(10.9499 2.36703 1.81207e-17)
(13.3632 5.04976 1.79901e-19)
(9.63058 2.87349 0)
(-0.662501 0.0426914 4.53763e-20)
(13.9297 4.25035 4.28998e-18)
(9.95506 0.403558 -6.77717e-18)
(9.21087 -3.50694 -2.47458e-19)
(9.5709 1.12163 1.47129e-17)
(12.6316 6.67976 -1.81604e-17)
(9.7276 1.54625 -2.91931e-18)
(0.877076 0.0972365 0)
(11.5218 0.564461 1.36487e-18)
(6.86618 4.03926 0)
(13.1457 2.3363 2.9376e-18)
(8.32906 0.314117 0)
(-0.614779 -1.96431 -8.19052e-20)
(10.9394 0.388095 -2.61286e-19)
(9.7727 1.30267 0)
(8.19089 0.691054 2.73745e-17)
(11.9461 1.18477 -4.43291e-18)
(12.4964 0.516653 6.21207e-19)
(12.0135 0.805524 1.46231e-18)
(-1.60156 -0.282475 1.03832e-17)
(9.79527 0.933726 3.99322e-19)
(12.8818 4.19492 1.84896e-18)
(11.8188 2.59246 -1.70037e-18)
(9.77615 1.05974 -9.95238e-18)
(9.16697 0.716706 -1.76078e-18)
(9.47002 0.786376 0)
(0.482683 0.313041 5.45717e-18)
(10.3048 1.67694 0)
(11.3581 1.29808 4.15234e-18)
(10.4435 0.409734 -1.41056e-18)
(11.5851 1.17512 -9.81918e-19)
(11.5553 1.71925 1.64197e-19)
(8.02492 1.86721 1.25097e-18)
(14.0393 -0.166104 -2.07337e-19)
(11.3737 1.3365 -2.03808e-18)
(10.8341 1.82048 0)
(9.7067 0.87564 -5.66862e-18)
(9.84079 0.610834 0)
(9.55932 -0.122619 1.26206e-17)
(9.86034 0.843377 -1.89932e-17)
(9.62044 1.05062 2.40075e-20)
(11.3304 0.887468 7.18051e-18)
(-1.859 -0.183825 1.12307e-17)
(11.1287 1.64756 -3.23172e-18)
(9.66758 1.08916 -7.71941e-18)
(1.65406 -2.37939 1.95141e-17)
(-0.264889 0.995615 -5.82138e-17)
(9.86357 0.62116 5.64767e-18)
(9.94908 5.68121 8.82363e-19)
(-1.05091 -0.87774 2.20902e-19)
(10.7455 0.640045 -1.61566e-18)
(9.87322 0.505785 0)
(10.3701 -0.631663 -3.79021e-18)
(9.72879 2.51393 -3.18823e-18)
(9.85899 1.70016 2.54025e-18)
(12.4357 2.24349 -3.58176e-18)
(10.6167 1.40234 -2.57217e-19)
(6.60874 0.91552 5.51211e-19)
(-1.20232 0.475714 6.04174e-18)
(12.8962 2.57033 0)
(5.04865 1.44775 4.72389e-19)
(9.47051 -0.212032 -3.59914e-18)
(11.6269 -2.18666 2.76785e-18)
(9.95616 0.859039 -1.51369e-17)
(13.7114 3.16109 3.19252e-18)
(9.66525 -2.54556 4.94993e-18)
(10.1358 1.3348 3.3447e-18)
(8.93002 -3.25312 1.46963e-18)
(10.407 2.03076 0)
(9.60794 1.5878 9.26593e-18)
(10.6143 2.29837 5.36603e-19)
(9.94796 1.96733 -6.95859e-18)
(12.8404 6.34975 -9.75553e-18)
(10.6964 -0.876249 -4.51891e-19)
(10.6348 0.498474 -4.39566e-19)
(16.9201 6.99063 1.58936e-18)
(10.9093 1.8416 -1.49645e-18)
(13.5566 2.39693 -7.60098e-18)
(9.44904 0.204896 4.09563e-18)
(4.71292 0.0644935 -3.9195e-18)
(10.0164 1.19608 -1.41646e-18)
(8.95335 2.31173 4.64035e-20)
(10.1731 -0.0332377 1.40652e-18)
(12.8193 1.91537 -1.09911e-18)
(9.91049 0.898877 -2.28638e-18)
(5.71261 1.95366 7.23172e-18)
(9.77611 0.628675 3.30283e-18)
(6.58 -2.89492 -5.95011e-18)
(11.9636 2.12943 3.87193e-18)
(9.63672 2.27111 0)
(1.98778 -0.0705676 -6.16767e-18)
(0.858127 4.15939 2.53551e-17)
(12.0435 -0.0395439 0)
(0.372958 0.921477 -2.04525e-17)
(11.9521 2.00984 6.82422e-18)
(9.6541 4.18844 -2.56158e-19)
(12.3145 1.03723 0)
(12.0953 0.543031 0)
(1.74647 0.605323 0)
(10.1069 -0.0178453 -1.22896e-18)
(10.2599 1.21777 3.01698e-19)
(10.2636 -0.555807 4.08947e-18)
(7.9679 1.4994 -6.39265e-19)
(11.3142 0.241637 2.00331e-18)
(10.0628 -0.873316 0)
(9.59159 0.154783 0)
(10.2162 -0.240979 -1.71329e-18)
(10.9889 1.10124 -2.73575e-19)
(10.5754 1.3725 6.09005e-21)
(0.492818 0.0513803 7.41579e-18)
(-1.24549 1.70751 -7.08552e-17)
(10.4361 1.25874 1.89914e-18)
(6.01771 1.98475 3.6539e-18)
(1.09978 -0.144648 0)
(9.8505 1.03895 4.99001e-18)
(-1.26744 -0.465678 1.22204e-17)
(10.3942 0.447273 -1.58572e-18)
(1.42786 0.623488 -3.54758e-18)
(10.0823 1.70092 -8.53264e-18)
(2.39602 0.138126 0)
(9.92118 1.14651 5.71819e-18)
(11.0643 -2.19483 -4.62743e-19)
(-1.21447 0.021745 -5.38208e-18)
(9.94453 0.892479 8.19834e-18)
(13.0308 -0.059543 0)
(2.83918 2.00222 -1.73063e-17)
(6.07488 1.66601 3.5997e-18)
(11.0768 0.44116 -7.98819e-19)
(11.8636 1.59188 -4.57953e-18)
(3.77639 -4.92215 1.45965e-17)
(11.2036 0.34633 0)
(9.94537 0.850266 3.83962e-18)
(11.499 0.82136 0)
(7.49266 -6.29511 -2.81984e-19)
(9.94603 0.803145 2.15861e-17)
(-1.19884 -0.429613 -7.87848e-18)
(15.4835 -0.378611 2.53005e-18)
(10.1829 0.479508 -3.29433e-18)
(10.0036 2.24638 -6.13705e-19)
(1.43654 0.228385 -1.55633e-17)
(12.2079 -1.03605 3.68546e-18)
(12.1381 1.95362 -8.65686e-20)
(13.3942 2.04287 -5.99362e-18)
(10.1159 3.32623 -1.75108e-19)
(-1.6613 -0.357767 0)
(11.3214 0.149636 -1.69154e-18)
(9.6934 0.767801 0)
(9.7542 1.08522 1.54935e-18)
(6.54431 0.870582 1.02577e-20)
(12.84 0.655406 0)
(8.59475 -1.85435 0)
(10.2392 5.54179 2.05494e-18)
(11.7326 1.2015 -4.69515e-19)
(2.57815 1.21749 -9.21929e-18)
(9.79541 0.962571 6.51505e-18)
(6.62602 5.30534 0)
(12.8786 1.39663 -5.07883e-18)
(11.0573 -0.283995 -3.76726e-20)
(12.4162 2.75394 -4.97197e-18)
(10.7884 0.479859 5.40186e-19)
(-0.406734 1.17275 0)
(10.2562 2.37688 4.44872e-18)
(11.424 2.63672 1.71563e-19)
(-1.76472 0.27556 0)
(6.73373 -0.630451 0)
(10.3866 -0.387179 0)
(11.1726 1.36105 5.99392e-18)
(10.4721 0.716211 1.07796e-20)
(11.1377 0.145883 5.27183e-19)
(10.7968 1.23461 4.50806e-18)
(11.4653 1.40313 0)
(7.27247 0.717824 3.76045e-18)
(9.95803 0.87221 7.58276e-19)
(3.32322 7.05547 -2.25247e-18)
(12.2564 2.00959 3.0459e-19)
(8.58642 0.815757 1.40506e-18)
(8.01078 -1.33806 5.92233e-18)
(9.73586 0.0287344 7.95979e-18)
(13.0371 1.58034 4.9391e-18)
(6.01493 1.0893 2.21438e-17)
(8.78512 0.572754 -3.55554e-18)
(11.0652 2.06885 -2.60737e-18)
(9.80103 1.12993 0)
(10.5782 1.16021 0)
(11.8848 1.0411 2.7024e-18)
(9.6009 -0.419542 1.66311e-19)
(9.60627 1.76318 -6.32089e-19)
(10.1514 0.527315 -3.13061e-18)
(-0.969049 1.3046 2.96805e-17)
(12.2674 2.36672 -5.31482e-18)
(5.0173 2.25498 0)
(8.0801 2.17373 1.33133e-17)
(9.66668 0.661134 4.09988e-18)
(9.74659 0.718782 0)
(11.7401 0.364922 -2.10639e-19)
(-1.39966 -0.0846281 1.80906e-17)
(-1.93186 -0.4287 4.20746e-18)
(10.0275 3.99581 4.87484e-19)
(7.81142 2.10639 -2.6936e-18)
(6.23728 0.199159 -5.53011e-18)
(9.85329 0.674324 -1.0511e-17)
(12.9244 1.54049 -1.6275e-20)
(6.23858 0.834019 0)
(10.5845 1.58809 -7.17619e-19)
(9.75626 0.944386 -2.96947e-20)
(11.2993 -0.118918 0)
(11.9283 1.42476 0)
(10.0673 -0.23255 0)
(6.21234 7.03368 -1.44373e-18)
(-0.867552 -0.956698 5.8842e-18)
(10.313 2.81402 1.58751e-19)
(12.66 0.824686 1.95282e-19)
(11.2441 1.64183 4.61288e-18)
(4.32203 0.1442 2.79238e-18)
(0.761056 0.417856 6.32835e-18)
(10.0557 1.46438 -3.23067e-18)
(11.5254 1.65952 5.20618e-18)
(10.0667 1.19553 1.6897e-18)
(11.5492 1.43967 3.12175e-19)
(10.691 0.487721 0)
(15.8498 3.82156 0)
(9.94344 -5.82458 0)
(12.8381 0.570812 3.58244e-18)
(9.11689 0.453792 7.17607e-19)
(10.8885 0.872105 -6.8044e-19)
(10.8876 1.81506 -9.52016e-19)
(-1.68951 -0.557111 -5.44836e-18)
(11.4524 0.392823 -1.36348e-19)
(10.7474 1.23896 -1.80185e-18)
(3.24475 -0.046058 -8.01961e-18)
(0.538853 -0.291001 2.98341e-18)
(11.5929 1.02493 8.99415e-19)
(11.3585 0.545368 3.28428e-18)
(9.9591 0.444381 0)
(3.38067 0.00712641 -3.74575e-20)
(11.1185 0.538224 3.53318e-19)
(-0.757056 -2.21084 -1.33965e-17)
(-1.00664 1.13817 1.37466e-17)
(-0.841387 -2.00635 6.60756e-18)
(9.95292 0.985138 1.78858e-17)
(9.56547 -1.87602 0)
(10.1182 0.917152 0)
(11.1823 0.809164 -1.57742e-18)
(3.87194 -0.709742 7.66005e-18)
(10.7225 0.79751 8.77579e-19)
(9.95242 0.696361 3.59429e-18)
(8.36307 10.3075 1.59143e-18)
(9.75206 1.78314 -4.46319e-18)
(9.92981 0.913401 -1.37305e-17)
(-0.831935 1.27515 6.34253e-18)
(11.0587 1.96873 -3.79316e-18)
(8.87267 1.51355 -2.92687e-18)
(9.95001 0.814946 1.41272e-17)
(10.771 1.51641 0)
(10.5648 0.470068 -5.6267e-19)
(10.4176 0.631156 1.36967e-19)
(-1.12888 -1.57805 1.07428e-16)
(1.77391 1.06104 -3.66157e-18)
(10.1137 1.32175 0)
(1.01097 0.87484 -4.41434e-18)
(9.69141 1.0203 6.78851e-18)
(2.82478 -0.0245324 5.14381e-18)
(11.8111 0.708517 2.17011e-18)
(11.6257 4.84795 -1.85898e-18)
(10.9317 1.64527 5.06577e-18)
(9.93672 0.679382 4.35071e-18)
(11.5902 0.881965 0)
(10.3709 0.436127 -2.62872e-18)
(-2.01463 0.108185 -5.2091e-18)
(-1.12503 -1.4647 -2.97916e-17)
(9.8609 0.814345 3.82034e-18)
(-0.59231 1.1096 6.12227e-18)
(5.42797 0.511926 -8.7589e-18)
(10.4037 0.763518 -2.00018e-19)
(13.249 -1.76897 2.51817e-19)
(11.6353 0.75222 -6.10589e-18)
(8.61616 1.79013 3.66032e-18)
(12.5571 0.126572 0)
(8.14862 0.0991335 -3.2176e-18)
(4.06568 -0.784359 -3.76246e-19)
(13.1416 0.390716 8.52999e-18)
(9.81751 0.320972 0)
(11.0375 0.34974 -2.09684e-19)
(6.10078 1.15759 1.06343e-18)
(6.72915 1.53825 9.85551e-18)
(9.83082 0.379168 1.30124e-17)
(11.3229 -2.10944 2.76148e-18)
(3.69816 -0.0266623 -2.10347e-19)
(5.55769 6.22554 0)
(11.6007 0.807812 -4.9316e-18)
(12.8982 0.923514 1.3018e-18)
(4.07465 1.62328 4.72766e-18)
(8.62612 -2.99034 0)
(11.2495 1.65727 -3.9192e-18)
(8.0224 1.6219 -1.531e-19)
(9.75443 0.884566 -2.86807e-18)
(11.215 1.9289 0)
(4.51431 1.65017 0)
(7.77597 4.26714 4.99845e-18)
(12.4297 -1.61905 2.79812e-18)
(10.7312 0.481835 1.0284e-19)
(10.7693 1.13222 -1.67457e-19)
(8.14568 2.05063 -6.86949e-18)
(9.70098 0.924516 1.86327e-17)
(2.15513 1.9642 0)
(-1.09725 0.592781 4.13261e-17)
(10.1305 0.474305 0)
(10.4863 1.38118 -1.00923e-18)
(-1.20511 -2.01313 -1.48286e-17)
(4.82406 -0.51143 7.05907e-19)
(12.5578 1.18691 3.96408e-18)
(10.9928 0.417126 0)
(10.2461 1.42195 0)
(8.7673 0.523852 -1.65368e-18)
(10.0395 1.13294 3.15383e-19)
(10.1768 1.74396 4.72675e-18)
(10.3656 0.565836 0)
(11.9756 1.49094 -3.10963e-18)
(8.80145 -1.66256 -2.31475e-18)
(8.26063 -0.517515 1.37851e-19)
(10.5888 1.36824 3.02828e-20)
(9.75301 1.00786 1.49667e-18)
(9.91045 0.788012 8.0585e-18)
(9.92442 0.978295 -2.10255e-17)
(12.756 0.585671 -1.16894e-18)
(11.8497 6.77538 9.14868e-18)
(2.79667 0.231612 -3.92185e-18)
(9.16404 1.31998 1.00464e-17)
(11.2192 1.45257 0)
(0.769866 0.0133208 0)
(10.1062 0.49562 -2.20201e-18)
(13.5947 0.163627 -6.4896e-18)
(11.2086 0.253848 -8.02922e-19)
(10.8956 1.46755 2.40227e-18)
(10.9173 -0.229554 0)
(12.201 -0.256892 4.6475e-19)
(9.90716 0.63797 -1.69593e-17)
(9.93923 0.919525 1.54164e-17)
(9.98651 0.364516 0)
(8.73961 0.64498 -7.06626e-18)
(8.58499 4.38137 -5.42352e-20)
(8.14586 2.32722 0)
(11.76 -0.508838 0)
(12.3469 1.76136 5.6824e-18)
(10.1218 0.568234 2.10451e-18)
(1.46204 -0.339452 -3.11261e-19)
(11.1308 1.62901 -3.37018e-18)
(8.80469 2.24618 6.70085e-18)
(10.3268 -0.0342195 -3.7262e-19)
(-0.306896 -1.37159 0)
(10.5792 1.46813 -9.54065e-20)
(10.4712 0.546578 -1.74244e-18)
(11.8247 1.13305 0)
(10.5109 2.32166 3.10624e-19)
(10.8898 1.27247 5.11198e-18)
(10.4747 2.10066 7.36183e-19)
(12.0913 0.95629 3.1422e-18)
(10.8814 0.582209 1.03758e-17)
(8.63446 2.14319 0)
(10.4555 -1.56855 4.17074e-19)
(10.5644 0.692382 -8.5812e-19)
(10.3449 7.13703 -1.552e-18)
(9.6882 1.5506 -3.23405e-18)
(11.1191 0.347536 -2.61386e-18)
(-0.962337 1.4251 -8.84237e-18)
(9.32289 -3.74476 -1.33205e-18)
(9.02346 2.10217 9.59437e-18)
(9.02174 3.77424 0)
(11.6495 1.30058 -6.47962e-18)
(9.33259 -1.37103 -6.24825e-18)
(11.1083 -1.50322 1.9928e-19)
(12.544 6.12256 5.2621e-18)
(-0.274607 -1.37872 -7.48572e-18)
(10.418 0.392573 2.73161e-19)
(10.8804 -1.52263 0)
(12.7606 0.484207 -5.28609e-18)
(9.87287 0.857194 3.28947e-19)
(10.6064 -0.302572 1.75696e-18)
(10.2753 0.208194 -1.32976e-19)
(5.34695 2.17348 0)
(9.87907 1.10853 2.36312e-18)
(11.3222 -0.0428941 0)
(-0.76278 0.38542 -5.09009e-19)
(9.94939 0.886575 -9.15038e-18)
(10.3333 1.59327 1.53651e-18)
(10.5806 0.748095 8.42553e-20)
(12.7607 -0.336777 5.99619e-18)
(5.59498 1.42225 -4.06867e-19)
(11.5061 1.20493 1.93222e-18)
(6.17729 3.84598 -2.11729e-18)
(4.24141 0.314852 4.27821e-18)
(12.4028 1.12757 -9.82321e-19)
(0.991318 -0.347265 4.19954e-18)
(10.4956 1.27779 6.37739e-20)
(10.3708 4.56136 6.6049e-19)
(10.297 1.59862 1.38586e-19)
(11.3031 11.3285 -2.83193e-18)
(9.93068 0.340445 -4.22487e-18)
(8.50439 3.19244 7.97086e-18)
(12.2613 1.91003 4.84989e-18)
(10.2151 11.4993 7.20479e-18)
(10.8431 1.16302 5.12863e-19)
(10.1204 2.03457 -6.03635e-19)
(-2.3831 -0.16287 8.35252e-18)
(11.6671 1.36487 3.47336e-18)
(13.1887 2.07123 3.69049e-18)
(-0.0307444 0.414483 1.41163e-17)
(11.7466 -2.59761 -1.84337e-18)
(10.6291 0.205139 1.35708e-18)
(5.65416 9.10442 1.99046e-19)
(10.8251 1.33463 2.06472e-18)
(-1.08118 -0.650816 -1.20209e-17)
(10.813 0.452922 6.29013e-19)
(6.15062 -0.54079 9.13325e-19)
(11.4659 1.92903 3.75307e-18)
(1.72318 0.202814 -4.04894e-18)
(4.46145 0.548287 0)
(-1.87936 -0.0961561 1.10848e-19)
(11.6437 -0.635299 3.21636e-18)
(12.0471 -1.07841 -7.19566e-18)
(11.5485 0.260318 0)
(11.7713 1.15558 0)
(0.733967 -0.676619 -1.63356e-17)
(12.3067 0.782246 3.90066e-18)
(12.1159 1.44387 0)
(9.96159 1.09656 -4.86278e-18)
(2.33098 0.737828 0)
(8.64982 4.88096 0)
(7.86983 2.18565 -1.24563e-19)
(10.4509 1.27517 5.25672e-19)
(0.874146 -0.121757 3.15835e-18)
(10.1139 0.616539 2.3684e-19)
(9.39888 1.88902 8.14158e-18)
(-0.758595 -1.45741 1.51706e-17)
(10.6806 1.02451 -8.89179e-20)
(9.80347 0.766697 -6.6748e-18)
(9.96375 1.22781 3.34031e-18)
(10.2575 -6.74017 1.20064e-18)
(12.166 0.196442 5.64594e-18)
(10.9265 -6.92628 2.96805e-18)
(10.6705 -2.11715 -7.69576e-19)
(12.3686 1.13015 4.13594e-18)
(-2.15287 -0.270141 5.73819e-21)
(12.2102 1.21774 1.00403e-17)
(12.7857 1.26881 -3.63457e-18)
(8.34073 0.978251 8.6586e-18)
(8.32778 1.09301 1.00857e-17)
(9.8127 -0.334113 3.0034e-18)
(11.4394 0.816654 -5.60363e-18)
(12.8293 0.401701 -2.07199e-18)
(12.4566 -1.4221 -2.80308e-18)
(11.2901 0.718165 1.54088e-18)
(10.4133 2.32927 -5.06415e-19)
(13.3115 -1.9987 -2.88864e-18)
(9.87513 0.921261 0)
(12.0856 1.55186 6.89814e-18)
(10.6244 0.415915 -5.02961e-19)
(12.4579 -2.80488 2.52397e-19)
(12.3598 1.66556 -1.48974e-17)
(-0.70817 -1.45778 0)
(9.94599 0.788548 -2.45371e-17)
(10.3424 3.29577 -2.80655e-19)
(11.6139 -0.29686 1.75553e-18)
(9.93677 0.227509 0)
(10.4751 -1.96994 -5.95097e-19)
(10.5171 0.514175 -1.47161e-20)
(10.1137 0.620188 4.54457e-19)
(9.69691 0.973448 8.30428e-20)
(10.3856 1.40465 6.98264e-19)
(11.4856 1.73285 3.27405e-18)
(8.16876 0.381326 -8.37498e-18)
(9.38473 0.819021 0)
(11.0487 0.437472 -6.76465e-19)
(10.973 0.438269 -1.20848e-18)
(4.80288 -1.88808 0)
(11.3681 1.06086 3.74206e-18)
(3.89989 -7.15628 1.27259e-17)
(10.0299 1.16082 4.3026e-19)
(7.94748 -0.650014 -9.98897e-18)
(9.92462 0.896386 -9.1792e-19)
(11.8778 1.84895 -9.93747e-19)
(9.61042 -0.138347 -2.48047e-18)
(2.54716 -5.12718 -2.1355e-17)
(10.3651 0.434411 0)
(10.6553 1.61535 0)
(9.30589 0.404018 2.36624e-18)
(15.1978 -1.29484 1.16983e-18)
(4.08701 -0.617138 0)
(-0.487084 -1.56115 2.75187e-18)
(4.32845 -1.46628 9.34008e-18)
(5.12163 2.55714 -9.09503e-19)
(11.3431 1.50024 -4.15929e-18)
(-0.242328 -0.51155 -8.58365e-20)
(13.0672 -1.25875 3.44023e-19)
(4.74655 -7.45315 0)
(9.79318 0.789792 7.04321e-19)
(9.70494 1.49391 0)
(5.03069 0.983842 -1.69284e-19)
(1.71502 -0.719799 -2.8411e-18)
(10.6361 0.930887 1.69835e-19)
(10.0347 0.598258 5.07001e-18)
(9.56955 -0.297133 0)
(11.4158 0.0774895 -3.97672e-18)
(9.63697 2.341 0)
(10.9042 2.6461 -7.61968e-19)
(-0.364258 -0.936025 -3.41943e-18)
(10.4098 0.788125 -6.33429e-18)
(12.9781 1.18464 -2.47607e-18)
(10.5376 0.659824 3.04267e-19)
(10.4902 1.24601 -9.40226e-21)
(11.5412 0.0242021 -4.9949e-18)
(9.96153 -1.35807 2.7765e-19)
(11.8891 -0.0600729 2.1833e-19)
(9.96801 0.515124 -7.91416e-18)
(9.93259 0.652831 3.95854e-18)
(9.99221 0.67856 -4.8869e-18)
(11.9484 0.533629 -1.42916e-18)
(9.50104 -2.1056 -4.41785e-18)
(11.9882 0.405213 -1.36629e-18)
(8.9049 -2.99563 -7.95035e-19)
(9.89988 0.933254 4.30116e-18)
(12.2698 1.33582 -8.16467e-18)
(10.5482 0.974566 -2.12467e-18)
(-1.00369 0.796926 -4.69079e-17)
(12.2801 -0.555795 7.78078e-19)
(12.5178 4.71666 -2.13527e-19)
(11.0836 -0.12057 0)
(11.6049 0.82354 0)
(10.0259 0.601187 1.00081e-17)
(9.98899 0.670728 6.31425e-18)
(10.0481 1.43372 6.61044e-18)
(10.5169 2.03621 -2.21057e-18)
(9.80173 0.617097 1.14525e-17)
(-0.869504 -0.0157067 -3.97616e-17)
(3.96479 0.157245 1.73197e-20)
(10.0501 0.480863 -1.14931e-17)
(-2.54841 -0.165357 4.79866e-18)
(9.28856 -2.65892 0)
(9.45163 0.102149 0)
(10.679 1.18433 0)
(11.3008 0.188426 2.75385e-18)
(9.14595 3.60116 0)
(11.2865 1.01 2.46781e-18)
(12.9683 0.936593 1.50844e-18)
(11.1872 3.42394 -1.16933e-18)
(7.57603 0.264024 6.78169e-18)
(11.2407 4.25625 1.94171e-18)
(12.9389 2.01572 3.21965e-18)
(10.0072 0.66385 -9.59283e-19)
(10.2132 1.20454 2.11477e-19)
(10.8464 0.120191 9.44198e-19)
(11.1636 1.19591 1.1093e-18)
(8.30321 -0.650525 -4.444e-18)
(11.443 -8.07601 -1.53122e-19)
(10.0261 1.17241 0)
(11.0325 -0.321219 4.70426e-18)
(11.3926 1.64721 2.76033e-18)
(11.0974 0.454334 6.28851e-20)
(12.3107 4.16886 -6.98361e-18)
(7.15131 3.91275 6.68465e-18)
(11.1946 2.36115 7.70701e-19)
(11.082 1.79233 1.46337e-18)
(10.5458 0.831266 -9.78813e-19)
(10.0214 3.79662 0)
(14.8051 -1.76239 4.47859e-18)
(11.7037 2.59122 -2.66091e-18)
(12.1365 2.49017 -4.75372e-18)
(12.6157 1.40531 2.6438e-19)
(8.05342 0.0632971 -9.84332e-18)
(8.35585 1.22869 -4.55127e-18)
(-1.06251 0.907247 1.80966e-17)
(2.42741 0.795612 3.42787e-18)
(-1.97682 -0.299053 -6.30421e-18)
(8.30348 0.556355 8.42377e-19)
(10.7477 8.88238 1.17839e-18)
(11.6556 -3.99106 6.15675e-18)
(7.66422 0.949013 -3.39707e-18)
(12.6793 2.57863 2.01028e-18)
(9.8453 0.641449 9.48263e-18)
(11.3587 1.62197 5.51912e-18)
(9.9877 1.19256 3.56416e-18)
(0.572636 0.0559897 1.76846e-18)
(5.98426 1.541 6.98337e-19)
(-0.149597 -0.921937 -7.06505e-18)
(2.7554 0.458192 3.65561e-18)
(12.9598 2.64793 0)
(9.64215 1.52634 0)
(11.2667 0.690663 4.51253e-18)
(7.20406 1.94896 -3.44397e-18)
(9.71872 0.949823 -1.22269e-17)
(10.672 0.573051 2.33837e-18)
(12.783 3.64858 -1.72865e-19)
(5.04324 -0.0322576 -5.94963e-19)
(-1.3821 0.72953 0)
(9.94747 1.10549 -6.39618e-18)
(12.7529 0.880981 3.38573e-18)
(10.7464 1.01411 -1.00366e-18)
(9.8736 -2.61144 3.15651e-18)
(9.93726 0.828689 8.28622e-18)
(4.48827 -5.75267 5.18343e-18)
(12.0731 2.90898 7.29087e-18)
(9.20986 3.89905 -1.80305e-18)
(9.93936 0.832547 2.27084e-18)
(-1.36935 -0.218009 -2.67112e-18)
(16.6368 -7.69364 0)
(9.07677 0.0990758 3.93414e-18)
(13.5323 0.112451 4.19537e-18)
(10.8127 -1.09369 3.58475e-19)
(13.5651 2.14349 2.79462e-18)
(9.94622 0.837571 -6.26974e-20)
(12.0989 1.78652 -1.80376e-18)
(2.83866 -5.64199 8.57747e-19)
(2.78971 1.13001 -4.19687e-20)
(8.45596 -0.620246 1.36384e-17)
(11.1343 0.980461 5.7656e-18)
(10.1136 0.507645 -9.89603e-20)
(10.7328 -1.25051 0)
(13.6745 -0.823545 -4.31189e-18)
(0.0658231 -0.899908 0)
(11.8231 2.4908 0)
(3.02626 -1.63554 4.16978e-18)
(11.2416 0.0592121 3.24076e-19)
(11.3615 2.27092 5.26846e-18)
(9.37497 1.08657 -1.32765e-17)
(10.7774 1.97625 -2.95849e-19)
(11.2081 -0.635285 -7.77092e-19)
(-0.996939 -2.01626 -1.96078e-17)
(13.8149 2.12888 -7.90304e-18)
(10.0881 5.27862 4.17781e-19)
(8.87518 3.95615 -5.00747e-18)
(9.9746 1.41761 -6.29105e-18)
(13.1058 1.64362 5.53467e-18)
(-0.377752 0.863407 1.70214e-18)
(9.89066 1.0941 -3.0397e-18)
(-0.515083 -1.28657 -1.84238e-18)
(11.1819 0.193211 -3.85374e-19)
(10.1144 -3.56827 5.11404e-20)
(9.92215 0.733473 -1.10947e-18)
(11.1273 0.636781 3.42069e-18)
(2.98469 1.42829 9.88388e-18)
(6.61961 -0.248216 -5.2349e-18)
(10.9693 0.479039 0)
(4.91377 -0.405484 9.49933e-18)
(11.9965 -3.73096 -3.32782e-18)
(-0.341341 0.379282 -1.12665e-19)
(7.91049 7.22841 6.32004e-19)
(-0.448546 0.445701 -2.29215e-17)
(10.4934 1.47448 -5.60121e-19)
(7.04871 -0.406323 -8.225e-18)
(-0.388301 -1.43991 -1.57025e-17)
(3.54642 1.63451 0)
(11.4774 5.18821 2.43118e-18)
(10.6792 1.43971 2.18358e-18)
(0.0784273 0.547629 -1.15005e-17)
(9.33679 -0.533091 1.46332e-17)
(9.6679 -0.45093 2.59509e-18)
(8.22158 0.0557128 1.98009e-17)
(10.4673 0.352875 4.70002e-18)
(-1.09846 1.01163 9.41647e-18)
(15.9237 -1.81302 4.3235e-18)
(12.6708 -2.56559 2.04783e-19)
(11.0773 1.76775 -2.11574e-19)
(9.5972 2.26732 2.16034e-18)
(-0.660352 -1.332 -1.01865e-17)
(-1.31226 -0.176504 0)
(-1.07768 -0.340628 1.27146e-17)
(5.83771 0.681605 -2.04461e-17)
(10.6878 2.04334 9.03736e-20)
(8.85217 1.40085 -1.26539e-17)
(12.3201 3.98899 0)
(7.90508 -0.304911 0)
(12.409 0.902834 -8.15631e-20)
(10.3242 -0.460343 -2.07167e-18)
(14.2303 9.49414 1.52878e-17)
(12.2774 2.67246 3.50903e-19)
(12.3337 0.853194 1.25882e-17)
(8.45561 5.28165 2.30399e-19)
(9.43695 -0.584288 -9.3194e-18)
(-0.000598361 -1.14459 9.58982e-18)
(11.1388 0.327688 0)
(5.04569 -3.9504 4.9269e-18)
(9.74131 0.119638 -1.09268e-17)
(10.2926 0.510087 8.06115e-19)
(-0.619324 0.104896 7.56669e-18)
(10.3959 4.1146 3.29247e-19)
(10.3684 1.09377 1.11547e-18)
(12.3217 -3.06575 -2.91885e-18)
(13.2737 4.08475 4.16429e-18)
(11.3652 1.40731 -2.79292e-18)
(9.93899 0.783213 3.8646e-18)
(6.10596 1.93876 3.08125e-17)
(10.5536 1.36362 -2.4262e-19)
(9.98542 0.495039 -7.85307e-18)
(10.1565 0.452886 1.26376e-18)
(11.4029 0.0826983 1.24916e-18)
(0.641025 -0.663261 2.79714e-18)
(9.84873 0.825922 -5.16889e-18)
(9.92565 0.764537 1.45115e-17)
(12.7583 2.54445 0)
(8.21865 1.11035 -2.55427e-18)
(8.96029 -1.22886 9.13331e-19)
(-2.13992 -0.0991174 -5.34608e-18)
(12.2237 1.21955 -3.61761e-18)
(11.5647 0.594267 -1.36212e-18)
(12.272 -2.54255 2.57093e-18)
(12.5301 0.462817 -1.29688e-18)
(10.7858 0.50516 1.21224e-18)
(10.3272 1.83755 8.79603e-20)
(11.1796 1.5236 0)
(6.50791 -2.06362 -1.00622e-17)
(10.4547 -0.0139463 0)
(11.1229 1.92815 1.52862e-18)
(10.5523 0.513611 0)
(10.899 0.0641935 6.26162e-20)
(-0.89396 -0.305359 -9.08777e-18)
(9.68291 2.10371 -9.2135e-19)
(10.3868 0.787893 2.49804e-19)
(11.6867 -1.9184 1.48967e-18)
(9.36049 -0.417518 0)
(10.304 0.160572 5.0515e-18)
(10.0353 -0.680725 2.54717e-19)
(10.0536 0.604194 -2.0836e-18)
(7.59178 3.33887 -3.84331e-18)
(9.95056 0.837578 7.01394e-18)
(11.3362 0.205916 -1.87995e-18)
(10.2989 0.467467 -3.45954e-18)
(9.95893 0.868152 2.59437e-17)
(13.0376 2.31447 -1.97265e-18)
(13.0584 1.09911 -3.07992e-18)
(10.7538 2.02135 -1.72277e-18)
(11.3471 0.0624612 -2.43727e-18)
(10.0626 0.63666 0)
(0.220932 -0.662616 5.66938e-18)
(10.6123 0.634202 -5.81501e-19)
(10.1636 0.560395 -5.33541e-19)
(9.139 1.09739 5.48037e-18)
(8.34747 1.7678 4.81076e-18)
(11.9124 3.63332 -2.91071e-18)
(10.0312 2.51418 8.95022e-19)
(10.6263 -0.775983 -2.33513e-18)
(10.7484 1.94279 1.57907e-18)
(12.1934 1.33962 1.38417e-17)
(11.0992 -5.98161 -3.45748e-18)
(9.25277 -1.06428 0)
(11.3255 1.36318 2.82159e-20)
(10.4588 0.32911 -3.19246e-18)
(-2.08208 -0.0955169 1.08832e-19)
(10.0822 1.90359 -5.22824e-20)
(-2.03236 -0.182421 -2.63543e-18)
(11.586 1.31749 -3.64044e-18)
(-0.669706 -1.7443 1.01903e-20)
(8.61599 -1.669 1.81399e-18)
(10.7782 1.72913 2.26958e-19)
(10.015 0.651605 -2.24118e-18)
(10.2957 -1.9836 0)
(11.5238 2.41491 3.44781e-19)
(7.99284 -3.44021 -7.57265e-19)
(9.95785 0.863562 -4.18027e-17)
(7.14167 -4.24247 7.81826e-18)
(0.479413 0.422372 -2.86197e-17)
(10.0919 1.81615 6.82501e-20)
(9.95482 0.876616 2.40363e-20)
(12.5217 -3.9228 -1.87599e-18)
(9.38457 1.94908 -4.6461e-18)
(10.002 2.10751 -1.92021e-18)
(11.4608 0.450121 -3.32597e-20)
(9.84386 1.46851 -5.27565e-18)
(8.95485 0.985302 1.24182e-17)
(11.1691 0.376086 3.15699e-18)
(-1.9448 -0.241933 2.76756e-20)
(9.97909 1.66375 -3.54924e-19)
(11.084 0.661303 1.4801e-19)
(9.8941 1.44298 7.93801e-18)
(11.5696 0.689579 0)
(10.1252 1.7191 1.14718e-17)
(10.2915 2.67332 -3.30341e-19)
(12.9435 0.341463 -4.49496e-18)
(10.6276 -2.77113 4.30031e-19)
(10.9391 1.83317 2.54691e-18)
(12.0569 0.2461 -1.22123e-17)
(10.929 -0.656155 8.44705e-19)
(-2.41259 -0.101251 -3.57637e-18)
(10.0802 1.29596 2.72451e-18)
(10.4055 -0.0304687 7.52691e-19)
(14.9501 -2.22702 -4.75199e-18)
(11.5096 0.599095 8.01847e-19)
(10.4628 0.918484 0)
(9.95514 0.729418 1.06667e-17)
(8.99943 -2.19741 0)
(9.94489 0.694526 -2.14515e-17)
(11.1087 1.80219 -2.38656e-19)
(11.7753 0.347813 2.51335e-19)
(4.53492 4.21342 2.22574e-18)
(12.2536 -1.58771 4.52488e-18)
(11.1033 1.74359 5.97718e-18)
(5.44463 1.8252 -7.93957e-18)
(10.5107 1.22638 -7.67439e-19)
(12.8491 -0.626656 1.10053e-17)
(10.012 0.576323 -2.45445e-18)
(10.6873 0.433455 -2.84664e-19)
(10.6654 -1.4543 7.3822e-19)
(10.5618 1.62377 0)
(8.24617 -3.75969 1.08475e-18)
(-1.23814 -0.830869 -4.76966e-18)
(10.6874 0.467398 5.11092e-19)
(8.22806 2.01119 1.68602e-17)
(5.21234 0.675682 7.4052e-18)
(12.2461 0.583649 0)
(9.47617 0.951377 -1.84542e-18)
(-1.66155 -0.0548987 0)
(9.9209 0.673666 -2.22119e-18)
(9.77329 0.0629355 6.45003e-18)
(8.36319 -2.71501 6.07441e-20)
(12.3367 0.932459 0)
(9.78751 0.703387 8.5669e-18)
(9.72123 1.08024 -5.17756e-18)
(11.2895 1.42879 -4.21788e-18)