/*--------------------------------*- C++ -*----------------------------------*\
  =========                 |
  \\      /  F ield         | OpenFOAM: The Open Source CFD Toolbox
   \\    /   O peration     | Website:  https://openfoam.org
    \\  /    A nd           | Version:  7
     \\/     M anipulation  |
\*---------------------------------------------------------------------------*/
FoamFile
{
    version     2.0;
    format      ascii;
    class       volScalarField;
    location    "200";
    object      nut;
}
// * * * * * * * * * * * * * * * * * * * * * * * * * * * * * * * * * * * * * //

dimensions      [0 2 -1 0 0 0 0];

internalField   nonuniform List<scalar> 
11372
(
0.0588459
0.0227124
0.104766
0.138234
0.107058
0.0310897
0.128471
0.0570714
0.111322
0.0741789
0.134689
0.111812
0.0939242
0.137878
0.224734
0.117917
0.115103
0.12262
0.136111
0.137404
0.102744
0.143712
0.019991
0.0131097
0.128608
0.095264
0.168083
0.136388
0.138714
0.138203
0.136459
0.139934
0.0989416
0.139272
0.0631583
0.14324
0.141345
0.117777
0.093858
0.118008
0.0504228
0.138957
0.141469
0.109155
0.13999
0.0820387
0.129999
0.183017
0.00744466
0.130603
0.0128236
0.131752
0.0605267
0.15591
0.137986
0.133638
0.107482
0.0149427
0.127305
0.119486
0.0778108
0.182808
0.143768
0.0330477
0.0802576
0.143459
0.106571
0.187543
0.073656
0.0834695
0.139126
0.136675
0.14167
0.125315
0.0966009
0.139342
0.162328
0.137953
0.140018
0.0350543
0.208517
0.0224238
0.00273627
0.101388
0.0136986
0.0283902
0.141824
0.119648
0.133246
0.0647908
0.142135
0.131042
0.073416
0.111329
0.139003
0.108714
0.105144
0.185376
0.159391
0.141284
0.140325
0.12753
0.140157
0.139424
0.137857
0.0341404
0.0356687
0.139834
0.140752
0.134128
0.137921
0.131381
0.0468462
0.139206
0.220366
0.14048
0.0503847
0.14045
0.137426
0.229526
0.211409
0.053925
0.19072
0.140091
0.120822
0.137951
0.12751
0.096759
0.125584
0.0403714
0.0988781
0.114297
0.0130426
0.0983207
0.0955913
0.140859
0.12688
0.237965
0.0206013
0.13995
0.230092
0.139462
0.0986875
0.0799699
0.107441
0.0802958
0.159655
0.134987
0.13713
0.0273227
0.138899
0.0620869
0.12241
0.055376
0.139964
0.141664
0.123869
0.131052
0.204083
0.13719
0.137068
0.139344
0.0414765
0.139846
0.0165111
0.116249
0.0921506
0.141242
0.141447
0.142016
0.166052
0.147147
0.101206
0.0951141
0.0793085
0.0565425
0.129609
0.202
0.0415261
0.139988
0.102386
0.136894
0.0483695
0.0505641
0.181345
0.0262812
0.104196
0.0406418
0.129089
0.0191004
0.13664
0.138704
0.129037
0.121615
0.105675
0.114943
0.190857
0.138172
0.0756039
0.118195
0.138354
0.134427
0.136219
0.193213
0.139921
0.137602
0.140927
0.12878
0.130822
0.126683
0.0306154
0.131566
0.118476
0.137576
0.139559
0.136246
0.138764
0.137145
0.135817
0.115085
0.0450674
0.137576
0.0208723
0.00159261
0.13974
0.0928659
0.00137434
0.141231
0.139667
0.132202
0.13256
0.138124
0.101258
0.141193
0.0667372
0.0577581
0.0744435
0.0922693
0.143663
0.108622
0.139986
0.042081
0.114178
0.140736
0.10545
0.137708
0.136894
0.0633956
0.137047
0.0516383
0.129019
0.145101
0.0128193
0.119191
0.03044
0.135224
0.144095
0.140458
0.130727
0.137942
0.0692169
0.139133
0.0968766
0.138793
0.0956554
0.11854
0.0837044
0.18539
0.00357216
0.120488
0.00269305
0.0954367
0.115118
0.103867
0.102464
0.0921691
0.137894
0.141368
0.133023
0.109295
0.111189
0.130029
0.13601
0.135996
0.0449407
0.141276
0.190181
0.00139869
0.143342
0.0948945
0.136992
0.139083
0.172597
0.140983
0.101977
0.139339
0.110396
0.140184
0.113581
0.0601358
0.139984
0.077815
0.0556566
0.0838458
0.137662
0.115615
0.0335442
0.128127
0.14002
0.133693
0.0514588
0.140049
0.229139
0.0198902
0.140694
0.135273
0.160657
0.111142
0.11434
0.0278711
0.12546
0.106336
0.0972861
0.13764
0.138233
0.0578382
0.0814592
0.118759
0.0942404
0.128523
0.136408
0.138221
0.0868801
0.0525162
0.144853
0.100014
0.143025
0.0524777
0.134421
0.124501
0.158472
0.204707
0.134563
0.135233
0.141602
0.11425
0.141981
0.135294
0.122768
0.139936
0.0179719
0.109902
0.131404
0.119897
0.136475
0.0417833
0.110422
0.132093
0.104451
0.138879
0.142566
0.12315
0.132707
0.100303
0.140661
0.04368
0.107456
0.094406
0.125972
0.137589
0.138258
0.111141
0.0749905
0.157279
0.11724
0.124396
0.11214
0.139523
0.0343466
0.0666385
0.140487
0.13792
0.131779
0.117266
0.135899
0.0553947
0.119211
0.130154
0.0933814
0.137237
0.085844
0.0229978
0.140165
0.132106
0.140723
0.12634
0.144175
0.0136408
0.0642935
0.0822035
0.133662
0.141164
0.12123
0.139526
0.124045
0.142244
0.0651848
0.216623
0.129841
0.133414
0.14013
0.192426
0.139362
0.0112305
0.0413409
0.0150092
0.040921
0.121112
0.140591
0.140099
0.235267
0.142488
0.140223
0.0162882
0.137105
0.140045
0.0176187
0.112608
0.132704
0.140052
0.137535
0.141101
0.141433
0.0040167
0.19053
0.14067
0.188219
0.137576
0.018409
0.121457
0.0929522
0.139234
0.140198
0.131522
0.140922
0.130917
0.00384791
0.138956
0.0229988
0.102873
0.141566
0.0807489
0.128806
0.130537
0.105027
0.122651
0.235652
0.0480382
0.138658
0.130866
0.137829
0.117388
0.0933313
0.112433
0.164317
0.0611588
0.130443
0.0484677
0.112678
0.107718
0.127113
0.127173
0.137898
0.0531722
0.088472
0.108534
0.102286
0.143584
0.141692
0.076413
0.137543
0.040269
0.0105949
0.140658
0.141244
0.00588817
0.225721
0.0892902
0.138122
0.140837
0.026671
0.142831
0.139209
0.145074
0.121376
0.121256
0.125758
0.142674
0.138037
0.139805
0.140128
0.0283392
0.0586439
0.136962
0.13459
0.132722
0.0111425
0.140623
0.019966
0.111278
0.0415191
0.13637
0.115673
0.140057
0.140048
0.140053
0.132023
0.111036
0.125829
0.12274
0.0886529
0.140781
0.213321
0.129568
0.130121
0.138099
0.0583163
0.140996
0.0233672
0.125416
0.134684
0.141125
0.137076
0.11854
0.142449
0.0805439
0.123136
0.1416
0.0659072
0.137513
0.129561
0.0326139
0.0991055
0.131932
0.119063
0.126036
0.125338
0.120544
0.0594215
0.0459778
0.140879
0.121747
0.0905589
0.138826
0.13514
0.14016
0.099376
0.139829
0.132156
0.221529
0.139657
0.140351
0.143027
0.0978924
0.0980482
0.130229
0.0985761
0.102256
0.0992906
0.216853
0.141509
0.10845
0.140257
0.0132394
0.139585
0.122479
0.0555364
0.0139038
0.141484
0.137114
0.206546
0.124971
0.0355947
0.161073
0.103096
0.140035
0.015739
0.141343
0.00191235
0.142033
0.232899
0.130749
0.180008
0.00838828
0.22974
0.123426
0.11375
0.110101
0.0357285
0.0351424
0.112121
0.110753
0.140289
0.00737299
0.105104
0.0757574
0.143384
0.207027
0.140711
0.0596771
0.0469511
0.142048
0.138622
0.140248
0.0484908
0.0729655
0.0417798
0.116763
0.10516
0.191827
0.0415645
0.0652486
0.130102
0.130243
0.134191
0.133801
0.0862109
0.103278
0.0672315
0.134767
0.0778294
0.138806
0.108058
0.140872
0.089766
0.0913676
0.03945
0.140078
0.125059
0.126683
0.138997
0.119168
0.146796
0.140723
0.137537
0.141109
0.132265
0.0871907
0.0324358
0.138124
0.139595
0.083297
0.137794
0.011943
0.140551
0.217965
0.140016
0.0169845
0.134589
0.0154182
0.14712
0.133592
0.134758
0.0305001
0.230566
0.0314864
0.0787717
0.0944944
0.129247
0.232662
0.0874065
0.0144636
0.138411
0.137792
0.146909
0.237696
0.141954
0.140491
0.13339
0.108357
0.133436
0.129688
0.113351
0.0662169
0.0554106
0.141542
0.141591
0.0927906
0.125849
0.104873
0.140243
0.140204
0.140297
0.123813
0.118839
0.10103
0.108638
0.139139
0.105763
0.142026
0.00111607
0.112536
0.0793247
0.152459
0.130363
0.140464
0.140284
0.140211
0.137559
0.139062
0.0383909
0.0249653
0.140416
0.21808
0.112993
0.134818
0.141691
0.102043
0.121208
0.139051
0.0603428
0.118026
0.123965
0.106422
0.0467557
0.140358
0.141309
0.138083
0.137664
0.125389
0.0255333
0.140545
0.155598
0.125048
0.1377
0.0906079
0.107435
0.07255
0.137413
0.141813
0.119663
0.0381809
0.120517
0.111035
0.0880496
0.126649
0.130135
0.0466917
0.163731
0.189879
0.0283571
0.0309882
0.0844456
0.125959
0.0887156
0.139456
0.135754
0.140398
0.172824
0.0904557
0.106708
0.0352647
0.0713095
0.137286
0.136986
0.0796763
0.137671
0.143833
0.0822507
0.206392
0.00133809
0.140228
0.0575628
0.141909
0.113831
0.139874
0.0325519
0.109011
0.118119
0.140063
0.217828
0.0140063
0.132765
0.0217221
0.126397
0.0235916
0.139938
0.0117874
0.013249
0.0566632
0.126466
0.140572
0.140639
0.125277
0.0574879
0.0986504
0.119096
0.0539632
0.133823
0.0923483
0.135646
0.137536
0.128137
0.00836719
0.0180719
0.0992412
0.116726
0.140049
0.0385196
0.109083
0.140161
0.0196204
0.10428
0.101013
0.140091
0.140135
0.158585
0.114772
0.140903
0.190311
0.0845005
0.00816716
0.064244
0.0126723
0.140987
0.117966
0.0168925
0.0708793
0.0899305
0.141001
0.0231335
0.130947
0.13283
0.12765
0.140844
0.0686102
0.0134237
0.0889653
0.125002
0.133822
0.0776088
0.215266
0.228277
0.0572939
0.137193
0.132674
0.0921568
0.124393
0.0946853
0.133968
0.010392
0.105107
0.110314
0.0990351
0.13097
0.0660971
0.126771
0.0651057
0.137042
0.141049
0.0229848
0.11457
0.142103
0.0893942
0.0639217
0.130674
0.140133
0.109939
0.142833
0.140264
0.140691
0.0950154
0.235141
0.138713
0.140125
0.0839899
0.129515
0.125101
0.203928
0.11064
0.127808
0.0962501
0.0633306
0.143151
0.138965
0.131586
0.103029
0.138398
0.115738
0.146898
0.13736
0.227535
0.0905676
0.141551
0.111085
0.169534
0.139932
0.131711
0.140465
0.115945
0.14003
0.105896
0.140898
0.139986
0.046638
0.0506142
0.10198
0.101978
0.140394
0.119356
0.141493
0.140907
0.134437
0.128839
0.104843
0.13321
0.130309
0.10477
0.109307
0.0562634
0.127171
0.137837
0.140782
0.214813
0.137931
0.131395
0.127321
0.0385118
0.120479
0.126191
0.140365
0.119618
0.125363
0.0994312
0.139976
0.0832322
0.0183778
0.100446
0.139801
0.0743816
0.134452
0.136201
0.126594
0.139056
0.133542
0.131362
0.126292
0.139073
0.140842
0.139656
0.129866
0.139252
0.131689
0.0746512
0.109575
0.120654
0.0858279
0.129965
0.169329
0.14059
0.138244
0.0369177
0.129867
0.142485
0.140211
0.117102
0.140218
0.12304
0.127048
0.0732636
0.105986
0.125917
0.0894635
0.142915
0.094718
0.140321
0.140811
0.123462
0.140292
0.0966027
0.091275
0.140924
0.127331
0.100325
0.11536
0.136204
0.229709
0.14012
0.137009
0.109662
0.0996232
0.138664
0.137992
0.131848
0.0791117
0.114983
0.120806
0.120424
0.140619
0.199123
0.10856
0.103434
0.138368
0.134148
0.136199
0.095113
0.123745
0.14066
0.0597854
0.139399
0.124826
0.0953423
0.141229
0.128615
0.149039
0.0419322
0.109602
0.134693
0.122802
0.120414
0.139733
0.0806682
0.140152
0.0942487
0.140207
0.139113
0.0295447
0.196033
0.13037
0.1342
0.132387
0.199093
0.152608
0.138045
0.21407
0.140404
0.113695
0.225147
0.14109
0.128527
0.122354
0.1473
0.136551
0.140352
0.108735
0.060234
0.0900144
0.108856
0.046905
0.140985
0.140859
0.14745
0.140145
0.130635
0.133456
0.137397
0.209443
0.0450824
0.14018
0.136317
0.115659
0.137992
0.085692
0.11946
0.139586
0.032101
0.0507475
0.139991
0.1257
0.0979419
0.219836
0.0717735
0.00139396
0.133057
0.121569
0.108578
0.0598625
0.148021
0.0873545
0.107514
0.142073
0.06617
0.130096
0.113817
0.118444
0.135495
0.132088
0.0733461
0.140437
0.136358
0.121592
0.0351376
0.130955
0.0471731
0.140248
0.0802709
0.125074
0.0399201
0.0443267
0.133417
0.124653
0.13978
0.0943783
0.108644
0.0622721
0.226321
0.116926
0.226089
0.0668903
0.13929
0.136472
0.0116567
0.0488981
0.00591726
0.0795287
0.126907
0.0970435
0.135323
0.120488
0.139303
0.128387
0.136519
0.162546
0.0323024
0.136731
0.0826113
0.143318
0.13722
0.128328
0.0391306
0.0950812
0.142967
0.140054
0.141869
0.120608
0.139672
0.136972
0.19735
0.189927
0.140814
0.0167247
0.138566
0.0638733
0.130966
0.216032
0.118321
0.129378
0.142295
0.0701048
0.0146351
0.142226
0.00892864
0.00349909
0.073556
0.141511
0.150279
0.1503
0.139771
0.137292
0.138829
0.0737578
0.125177
0.140203
0.122875
0.139888
0.139915
0.0216745
0.174744
0.125079
0.140226
0.0798284
0.141643
0.120195
0.142096
0.100811
0.0817772
0.105292
0.13107
0.104997
0.134205
0.126596
0.143794
0.111535
0.126766
0.12819
0.131717
0.0957062
0.129659
0.133231
0.117539
0.0927452
0.0793185
0.0154472
0.142663
0.133753
0.13637
0.140741
0.0592252
0.0555737
0.140429
0.021447
0.132349
0.121469
0.0782141
0.21188
0.106197
0.22073
0.114593
0.0843832
0.140728
0.139659
0.095054
0.13134
0.0581528
0.045004
0.140839
0.13812
0.142989
0.204679
0.129268
0.0987942
0.084605
0.0988521
0.138412
0.0868696
0.136974
0.0118733
0.115115
0.0295543
0.0815585
0.141657
0.141209
0.227389
0.220648
0.0989928
0.0514932
0.138839
0.105299
0.129581
0.0339331
0.0179882
0.204281
0.0471818
0.140701
0.0542004
0.0690289
0.13945
0.138817
0.00755614
0.137469
0.14315
0.14166
0.0946831
0.138004
0.00132213
0.136757
0.140769
0.135489
0.0790686
0.0969477
0.139922
0.161887
0.126088
0.120334
0.0481797
0.193276
0.140179
0.0739978
0.0938792
0.0884287
0.109567
0.0934853
0.136617
0.234883
0.139736
0.0174443
0.135825
0.127774
0.117554
0.104126
0.140575
0.0135281
0.107433
0.130411
0.0699092
0.00646765
0.122042
0.130805
0.0724746
0.138703
0.138027
0.141282
0.139802
0.107119
0.0791874
0.138641
0.090568
0.0817178
0.13624
0.029171
0.140152
0.116258
0.0867531
0.141212
0.195898
0.136245
0.0715552
0.140111
0.0811754
0.220132
0.136777
0.140689
0.14011
0.0802351
0.127522
0.207876
0.136896
0.141043
0.140843
0.139236
0.12234
0.14005
0.115162
0.144662
0.0162991
0.14333
0.14138
0.014629
0.140173
0.129672
0.136116
0.0237777
0.118041
0.0395348
0.0956593
0.14232
0.107778
0.114709
0.145888
0.0242537
0.0816547
0.138191
0.105836
0.109097
0.0339682
0.139214
0.103486
0.0727708
0.133335
0.0992852
0.125798
0.141124
0.210223
0.13567
0.087846
0.219476
0.00227258
0.126956
0.141304
0.228741
0.13987
0.0204668
0.133626
0.0814456
0.115396
0.139989
0.141104
0.125785
0.13144
0.140393
0.119466
0.199908
0.146528
0.0865934
0.198702
0.0627893
0.139079
0.0604196
0.135174
0.134193
0.0605564
0.136616
0.140172
0.116895
0.088292
0.140723
0.11654
0.140612
0.111244
0.133247
0.0834607
0.123015
0.108785
0.14105
0.0474349
0.110861
0.0652891
0.134998
0.00254645
0.231282
0.0941139
0.112994
0.135343
0.0651707
0.112827
0.0827593
0.0327794
0.0221926
0.139426
0.0849477
0.0180788
0.126733
0.135188
0.22496
0.121855
0.0367294
0.0109773
0.00474616
0.0993168
0.139085
0.131111
0.140572
0.141417
0.137744
0.00955413
0.128711
0.107126
0.127236
0.0947766
0.189204
0.0123371
0.13875
0.0283652
0.138069
0.211164
0.136186
0.103192
0.0919124
0.139125
0.139535
0.137816
0.139595
0.0157164
0.0829529
0.127597
0.0882336
0.0329961
0.135751
0.134533
0.139969
0.133363
0.0407808
0.0962248
0.130684
0.179294
0.139498
0.137391
0.0992673
0.1415
0.140619
0.148562
0.13899
0.0210478
0.122314
0.122366
0.169109
0.113771
0.214411
0.0182702
0.141321
0.126617
0.0477789
0.139768
0.133069
0.138629
0.105136
0.109429
0.133118
0.224797
0.211189
0.129482
0.101059
0.138411
0.0515279
0.0245892
0.0906883
0.016737
0.123149
0.0674309
0.00450231
0.140606
0.113164
0.140114
0.147976
0.0690314
0.132703
0.140575
0.106042
0.0676414
0.0623368
0.0644296
0.137798
0.133265
0.108748
0.204705
0.0224698
0.127575
0.00311598
0.140538
0.226047
0.0831594
0.228621
0.106833
0.10309
0.0712549
0.121024
0.140051
0.0287585
0.101725
0.0940308
0.128793
0.140667
0.137376
0.140083
0.136751
0.0873424
0.092907
0.119722
0.141941
0.135856
0.130623
0.146156
0.140885
0.129367
0.138858
0.10497
0.0798392
0.0150594
0.0943797
0.141106
0.0920211
0.0498171
0.00777579
0.0931072
0.0921176
0.0799844
0.12064
0.140782
0.140417
0.0240992
0.178163
0.126719
0.125764
0.11933
0.139797
0.117063
0.137978
0.138855
0.170599
0.109913
0.139292
0.006373
0.153409
0.0809558
0.136022
0.112905
0.141121
0.0465437
0.137455
0.140655
0.14115
0.165768
0.139202
0.0355242
0.122433
0.139973
0.0139452
0.0113032
0.111744
0.141925
0.139829
0.140583
0.139799
0.143492
0.142059
0.0947699
0.0178927
0.0956919
0.143149
0.202598
0.0213235
0.121936
0.104547
0.115303
0.137544
0.140583
0.138263
0.0727446
0.0712839
0.0126192
0.217709
0.14073
0.0863667
0.0981626
0.140419
0.215808
0.140404
0.102124
0.140133
0.235202
0.0697412
0.0866906
0.139919
0.138642
0.131985
0.137406
0.115191
0.14029
0.11055
0.139624
0.121154
0.0949207
0.141401
0.140734
0.117674
0.127102
0.0583467
0.108429
0.126582
0.109398
0.0868657
0.137585
0.140096
0.0525033
0.141005
0.124578
0.117089
0.138399
0.140982
0.118212
0.127784
0.141229
0.0901861
0.140216
0.136236
0.0120577
0.126226
0.10122
0.017537
0.139769
0.180871
0.137573
0.140223
0.140451
0.00248103
0.140101
0.125231
0.140156
0.138345
0.1545
0.139126
0.0470513
0.13541
0.0240089
0.113783
0.13976
0.0210984
0.0471489
0.112009
0.140635
0.0953368
0.225929
0.120531
0.141549
0.106545
0.111625
0.104364
0.139448
0.117641
0.0714585
0.0501323
0.117591
0.142174
0.136158
0.128299
0.047783
0.0606121
0.139546
0.0625282
0.125163
0.135061
0.108493
0.136433
0.11078
0.142436
0.139853
0.142493
0.142851
0.0629124
0.135319
0.125047
0.234136
0.10654
0.141037
0.105143
0.215674
0.018451
0.230057
0.140058
0.140143
0.0590786
0.123563
0.114061
0.134751
0.141498
0.0119577
0.109417
0.141285
0.115685
0.0357575
0.189738
0.139888
0.134928
0.138848
0.0122593
0.0970386
0.144095
0.117912
0.0798811
0.117705
0.111981
0.127964
0.134885
0.0201835
0.0154269
0.0862821
0.140237
0.110135
0.118646
0.115071
0.0881344
0.18958
0.140475
0.123077
0.134263
0.124535
0.0743509
0.13958
0.141
0.126369
0.190794
0.131752
0.140002
0.104755
0.0781582
0.177923
0.138614
0.142964
0.169733
0.0992775
0.125169
0.0955077
0.142558
0.138962
0.0943597
0.018796
0.0925004
0.141856
0.134729
0.0597326
0.135472
0.1396
0.128965
0.133397
0.139854
0.126311
0.139815
0.130566
0.059884
0.193195
0.0117764
0.00975655
0.236945
0.123353
0.0522829
0.0840785
0.142784
0.12956
0.141093
0.140425
0.227814
0.139717
0.0289303
0.141958
0.179717
0.0928801
0.125584
0.131604
0.111606
0.114415
0.13549
0.127383
0.076927
0.0842437
0.136682
0.108248
0.111806
0.14121
0.127716
0.14869
0.134943
0.0312277
0.140082
0.137591
0.0841112
0.124528
0.0112637
0.0683934
0.134539
0.0375787
0.141169
0.143856
0.150459
0.0680358
0.0664204
0.140229
0.129915
0.018432
0.0945752
0.135228
0.146733
0.11977
0.0764792
0.189311
0.115482
0.00831766
0.22828
0.11487
0.142905
0.11727
0.125
0.14012
0.138697
0.234402
0.104586
0.140607
0.0656916
0.0577806
0.0681803
0.142816
0.170164
0.123367
0.216282
0.0937318
0.141438
0.138017
0.0199859
0.049063
0.138718
0.128424
0.0657561
0.0857388
0.13306
0.131282
0.140215
0.0916263
0.140736
0.138894
0.124792
0.140838
0.131241
0.135696
0.024742
0.0416815
0.126737
0.124743
0.14016
0.137219
0.00535522
0.14054
0.0313851
0.221723
0.139085
0.13752
0.14062
0.138934
0.0904546
0.13669
0.0156444
0.058589
0.0457547
0.140407
0.119019
0.0342186
0.140608
0.129902
0.136701
0.11978
0.141962
0.136147
0.0471352
0.120534
0.0345176
0.0859427
0.0589401
0.11171
0.140135
0.0181704
0.140202
0.140595
0.133236
0.119689
0.107028
0.0449899
0.139742
0.0877175
0.111263
0.116533
0.0323159
0.128031
0.178758
0.0529268
0.0564686
0.110109
0.113009
0.0884196
0.141481
0.034502
0.129495
0.123177
0.0129295
0.139853
0.0115529
0.140489
0.140758
0.139223
0.128747
0.132616
0.136826
0.133461
0.13971
0.137424
0.12065
0.139322
0.100012
0.114657
0.109238
0.0704656
0.10051
0.0696126
0.141283
0.138234
0.13693
0.0962686
0.116452
0.0536318
0.138072
0.0273736
0.140787
0.140735
0.119532
0.139193
0.139705
0.0736582
0.0951001
0.14011
0.0819083
0.117969
0.117781
0.0683623
0.162289
0.00677338
0.0522323
0.107791
0.133131
0.121329
0.139633
0.137514
0.120794
0.0128682
0.138482
0.123402
0.0273338
0.182971
0.106665
0.229947
0.0971302
0.138802
0.120125
0.140485
0.133819
0.0128199
0.052135
0.0364529
0.0690301
0.139772
0.141487
0.141685
0.0170057
0.0199783
0.138072
0.0746405
0.140771
0.0914761
0.23125
0.124278
0.137666
0.15684
0.139602
0.124787
0.0766605
0.141166
0.0733612
0.0896798
0.099153
0.0625644
0.107706
0.120971
0.139995
0.0539684
0.0801685
0.139747
0.131452
0.137173
0.132488
0.13939
0.193091
0.0883662
0.00886435
0.142682
0.0662856
0.0232807
0.138296
0.141102
0.128571
0.140435
0.0229
0.0802756
0.0270544
0.0176489
0.0785206
0.108754
0.0779677
0.139086
0.0160579
0.132593
0.0137891
0.141348
0.00302376
0.121324
0.0665535
0.142417
0.140032
0.101306
0.00888305
0.109591
0.140711
0.139493
0.126201
0.15174
0.14067
0.128505
0.101421
0.139488
0.0636216
0.12026
0.134737
0.124327
0.108135
0.216687
0.14079
0.118676
0.117773
0.137849
0.136913
0.14173
0.132932
0.140164
0.121599
0.141696
0.0439037
0.13658
0.135795
0.0134523
0.14017
0.139942
0.239193
0.134659
0.109625
0.141439
0.0809267
0.0417504
0.158199
0.115518
0.063486
0.0733114
0.140246
0.029796
0.140917
0.119177
0.195763
0.142676
0.110812
0.138604
0.130966
0.125518
0.0438816
0.193096
0.0853285
0.0519789
0.118643
0.100678
0.130012
0.103012
0.0964736
0.126206
0.0192775
0.117733
0.127308
0.134349
0.11546
0.11799
0.140891
0.121854
0.0123979
0.152066
0.07163
0.114932
0.10743
0.138766
0.108066
0.231322
0.134992
0.143488
0.013322
0.132826
0.104746
0.102267
0.0572515
0.140804
0.119987
0.11856
0.0417207
0.140176
0.123988
0.137224
0.0974923
0.209331
0.138534
0.0369165
0.122005
0.166269
0.198315
0.0582936
0.132389
0.136765
0.113744
0.114417
0.140494
0.141225
0.05235
0.136465
0.222615
0.138245
0.142223
0.0880595
0.229256
0.129714
0.0110698
0.142899
0.131099
0.0992552
0.129532
0.0158769
0.132479
0.0940577
0.0225572
0.137728
0.138394
0.05089
0.0902349
0.143807
0.140115
0.111131
0.129327
0.142069
0.140741
0.14953
0.142796
0.135905
0.229321
0.118037
0.141026
0.139396
0.12896
0.202804
0.141131
0.143195
0.104578
0.11368
0.122442
0.117189
0.0445694
0.0826285
0.140643
0.110555
0.133651
0.140237
0.0703709
0.0948036
0.048064
0.0915869
0.127758
0.237062
0.104942
0.143193
0.103251
0.0181771
0.13792
0.134886
0.116491
0.101281
0.0129776
0.0707692
0.00427574
0.0539957
0.141032
0.138782
0.14013
0.0564359
0.133242
0.053336
0.135471
0.134614
0.137663
0.142573
0.138895
0.137994
0.135675
0.225485
0.14021
0.127009
0.0241607
0.142276
0.137793
0.203967
0.103328
0.141753
0.102602
0.140068
0.0962049
0.138467
0.0777696
0.140144
0.026495
0.128121
0.138949
0.230458
0.141577
0.217358
0.191991
0.0993637
0.113813
0.111704
0.134389
0.1136
0.140477
0.122602
0.114651
0.128325
0.140305
0.131734
0.140409
0.0704098
0.0381797
0.089046
0.173925
0.140643
0.0834711
0.141074
0.13442
0.00945852
0.187925
0.098433
0.0905584
0.0991048
0.139177
0.124382
0.13529
0.123966
0.132734
0.110259
0.138031
0.139302
0.119326
0.191382
0.143453
0.128927
0.119881
0.131021
0.0438538
0.137034
0.170493
0.0860166
0.114857
0.0202107
0.129065
0.0705178
0.140816
0.14148
0.0294507
0.115304
0.125498
0.144745
0.0415094
0.135892
0.137923
0.131123
0.12062
0.0901279
0.141786
0.0747257
0.143853
0.00868425
0.016914
0.0689388
0.0699445
0.140411
0.133666
0.14244
0.126141
0.00904527
0.139091
0.141925
0.129593
0.13845
0.113565
0.137123
0.0310961
0.135059
0.140258
0.177801
0.135859
0.125584
0.140359
0.107341
0.140402
0.132085
0.126474
0.0789435
0.138119
0.140583
0.139367
0.119047
0.139504
0.0207816
0.0548054
0.0872397
0.140392
0.141388
0.0502056
0.11892
0.107521
0.130127
0.200556
0.0245743
0.0694316
0.129974
0.11731
0.140581
0.0320745
0.136985
0.132805
0.227158
0.10949
0.12678
0.0866986
0.113499
0.0583276
0.0815826
0.141795
0.00795333
0.110208
0.194063
0.104519
0.139869
0.104966
0.140764
0.137799
0.232037
0.0301598
0.1774
0.141338
0.112456
0.138423
0.0433385
0.101854
0.13618
0.00858552
0.142715
0.136464
0.222885
0.140613
0.0210824
0.0937622
0.0327423
0.13262
0.141815
0.130944
0.0112545
0.226397
0.00700846
0.123425
0.101911
0.12759
0.230402
0.120979
0.139382
0.109783
0.136673
0.13598
0.140137
0.0235395
0.082359
0.142359
0.138869
0.183529
0.140277
0.129192
0.14183
0.104349
0.138991
0.139713
0.123743
0.0270525
0.0972655
0.140578
0.144272
0.109104
0.0986664
0.143304
0.105545
0.10517
0.0320222
0.129813
0.0414518
0.0306517
0.0639379
0.124804
0.0893988
0.223697
0.0916225
0.0854976
0.0693484
0.0113144
0.123177
0.137811
0.081356
0.096507
0.128406
0.0853806
0.139731
0.135812
0.135416
0.114325
0.0492235
0.140515
0.13409
0.136784
0.140663
0.168456
0.141355
0.0426263
0.0812357
0.133699
0.132889
0.111216
0.138604
0.126428
0.0137661
0.12252
0.140301
0.135243
0.0867489
0.138472
0.161425
0.0131818
0.115866
0.22858
0.0933843
0.0439419
0.13755
0.123055
0.212225
0.0103434
0.118169
0.0413323
0.16108
0.140839
0.105853
0.111368
0.131871
0.129111
0.130292
0.0141151
0.105814
0.140726
0.140296
0.140273
0.13473
0.0893957
0.0100036
0.13047
0.134839
0.138792
0.140518
0.145569
0.0328077
0.0460863
0.109637
0.204104
0.137065
0.0789351
0.0621134
0.130449
0.221195
0.0298317
0.0250537
0.142788
0.137641
0.118991
0.140044
0.193537
0.138663
0.00936725
0.0596325
0.115669
0.0364552
0.135408
0.140399
0.0740242
0.141281
0.121053
0.0386639
0.114453
0.139306
0.130897
0.196033
0.134693
0.0830731
0.124165
0.135998
0.140194
0.123273
0.0500275
0.125259
0.141728
0.140939
0.11002
0.141307
0.168939
0.0969768
0.0871335
0.0181546
0.139754
0.122048
0.113833
0.140282
0.126897
0.0974151
0.124589
0.0234107
0.123624
0.120436
0.135169
0.135612
0.133398
0.104181
0.21354
0.162232
0.138142
0.0327129
0.120953
0.121445
0.138835
0.128798
0.107093
0.0732563
0.0893973
0.118539
0.092483
0.136038
0.122952
0.133984
0.138916
0.0248247
0.103641
0.131229
0.0120227
0.140794
0.130957
0.13641
0.112838
0.0638139
0.138175
0.113978
0.133733
0.135158
0.145477
0.100229
0.105833
0.114489
0.140399
0.136432
0.0640903
0.0293588
0.12465
0.110889
0.0368162
0.138565
0.150743
0.132508
0.030162
0.0397359
0.135893
0.131168
0.210309
0.0697435
0.140212
0.139881
0.121922
0.12774
0.189112
0.140549
0.141925
0.137758
0.137675
0.0709295
0.207192
0.137821
0.137376
0.11611
0.139618
0.103382
0.216286
0.0642579
0.132942
0.0248172
0.0177981
0.142921
0.093144
0.14031
0.16019
0.0757642
0.103577
0.13942
0.140607
0.133126
0.0524151
0.132175
0.0228583
0.0433474
0.119307
0.0125847
0.238883
0.140964
0.11399
0.140224
0.0346299
0.115665
0.142662
0.140478
0.148987
0.140709
0.0439918
0.130737
0.109367
0.0904315
0.136896
0.129844
0.0361337
0.0818943
0.0627218
0.0764552
0.111035
0.0822861
0.208578
0.140051
0.127016
0.134974
0.12251
0.11293
0.13572
0.12843
0.135801
0.128313
0.142374
0.0495333
0.0737528
0.138179
0.142229
0.140014
0.129771
0.101611
0.139001
0.203302
0.107252
0.00256792
0.137384
0.139184
0.107805
0.132171
0.135956
0.11509
0.0339368
0.130393
0.140194
0.134219
0.142652
0.143645
0.102658
0.13578
0.0674124
0.132292
0.132364
0.0646026
0.083191
0.139172
0.142454
0.0678476
0.123783
0.0509024
0.140268
0.0361891
0.110466
0.152975
0.140356
0.0539687
0.140948
0.106114
0.034331
0.122392
0.166049
0.141979
0.00973637
0.129852
0.134832
0.139582
0.121344
0.142038
0.113789
0.113348
0.105562
0.121041
0.114163
0.0929896
0.135972
0.117346
0.136248
0.0581003
0.106474
0.136884
0.0865938
0.112903
0.140417
0.140828
0.0126439
0.083206
0.133917
0.0599276
0.110123
0.141585
0.139261
0.129069
0.0738118
0.140952
0.0695065
0.0628642
0.0229531
0.167833
0.141311
0.0697616
0.0697856
0.0526654
0.130488
0.0329115
0.112666
0.137709
0.136156
0.140157
0.132895
0.0957278
0.0766489
0.0634205
0.135304
0.0768505
0.183534
0.0664609
0.142056
0.0885989
0.0999171
0.134239
0.140398
0.136492
0.218709
0.137426
0.139778
0.126824
0.138305
0.0170824
0.123953
0.115592
0.0873914
0.131749
0.125447
0.116862
0.131535
0.231116
0.105175
0.124939
0.12169
0.209343
0.131581
0.0763598
0.217906
0.129448
0.17944
0.201601
0.187347
0.141159
0.202354
0.141354
0.139166
0.120844
0.113745
0.143559
0.140287
0.179817
0.12987
0.140214
0.136592
0.140315
0.026922
0.126019
0.136098
0.146434
0.12142
0.133681
0.140951
0.134279
0.140926
0.0893377
0.140042
0.23265
0.140255
0.14003
0.02568
0.0214588
0.140127
0.130361
0.14017
0.101669
0.144577
0.0362623
0.135535
0.141494
0.140408
0.141643
0.0406554
0.131432
0.119675
0.203338
0.206476
0.140018
0.0690748
0.171613
0.0210886
0.0444678
0.170895
0.197094
0.112167
0.0055762
0.140539
0.112595
0.0897149
0.127583
0.141557
0.139882
0.139882
0.0605945
0.16786
0.156767
0.129276
0.101059
0.13835
0.138378
0.139556
0.130928
0.0278672
0.0408655
0.121867
0.00607575
0.102923
0.130071
0.12095
0.139851
0.142735
0.139942
0.128678
0.0625703
0.0296426
0.138811
0.140058
0.0422982
0.104861
0.138909
0.142033
0.229072
0.13352
0.137097
0.0824259
0.133097
0.141612
0.214854
0.121884
0.0574411
0.125697
0.120521
0.0164462
0.0453986
0.0614641
0.0216565
0.138803
0.138357
0.0427355
0.0120291
0.077328
0.177534
0.106135
0.131086
0.120081
0.125548
0.00996412
0.143343
0.134275
0.0253947
0.14001
0.124729
0.140719
0.0909954
0.201098
0.0425026
0.141131
0.132876
0.110733
0.0183831
0.185204
0.136038
0.142658
0.141271
0.0593595
0.137741
0.121955
0.138663
0.0595796
0.0603226
0.108711
0.164261
0.138939
0.140305
0.136954
0.140293
0.0823932
0.135541
0.131966
0.0746248
0.126403
0.118329
0.00617243
0.142854
0.13957
0.122311
0.033534
0.138015
0.140291
0.00275256
0.128297
0.0160854
0.0834886
0.0847848
0.1114
0.139823
0.129876
0.135566
0.134312
0.0875479
0.133653
0.0770315
0.11784
0.102735
0.102718
0.139251
0.13912
0.0645183
0.118784
0.121379
0.0912117
0.118879
0.0191349
0.00548186
0.130816
0.121313
0.082418
0.115212
0.0288516
0.029824
0.141176
0.0462952
0.0773833
0.101111
0.141119
0.139953
0.188347
0.139454
0.00802093
0.0399641
0.0484196
0.225131
0.112123
0.136089
0.139957
0.208571
0.0886913
0.138787
0.139807
0.139406
0.141009
0.140065
0.133559
0.179227
0.0826443
0.0379818
0.129604
0.116763
0.129975
0.140727
0.114532
0.140176
0.111176
0.139973
0.0565933
0.0786526
0.135594
0.138029
0.10593
0.19265
0.141652
0.156168
0.0928757
0.122541
0.140208
0.123653
0.207646
0.00926566
0.139883
0.104985
0.0612679
0.116246
0.141149
0.139681
0.134679
0.107333
0.129449
0.140523
0.138239
0.0961555
0.136606
0.197429
0.100751
0.120559
0.11424
0.126041
0.198046
0.230862
0.123637
0.141152
0.122246
0.221394
0.137057
0.06246
0.046111
0.111067
0.105474
0.125664
0.128614
0.0953298
0.0800554
0.0247492
0.0721498
0.128452
0.117096
0.0968542
0.140426
0.142179
0.0719928
0.118786
0.0956776
0.110921
0.131098
0.0669167
0.118613
0.0675479
0.140813
0.14024
0.129414
0.011365
0.142937
0.124224
0.140611
0.10331
0.114629
0.13993
0.229694
0.184604
0.168367
0.140018
0.123514
0.130362
0.135447
0.140176
0.139369
0.123074
0.139834
0.0563724
0.127257
0.117456
0.128525
0.126104
0.138874
0.00243799
0.119566
0.140209
0.140205
0.0442505
0.139249
0.0990715
0.140901
0.0687848
0.22508
0.0498717
0.095921
0.138425
0.236437
0.0370008
0.137622
0.138114
0.194468
0.140146
0.0999061
0.107818
0.0465838
0.105236
0.141746
0.140111
0.134937
0.126394
0.209678
0.140155
0.192803
0.114775
0.140151
0.0344879
0.141253
0.110308
0.140521
0.112679
0.0312231
0.128005
0.136895
0.115432
0.0958276
0.139455
0.028789
0.173856
0.0366955
0.145217
0.137098
0.106701
0.140795
0.133562