/*--------------------------------*- C++ -*----------------------------------*\
  =========                 |
  \\      /  F ield         | OpenFOAM: The Open Source CFD Toolbox
   \\    /   O peration     | Website:  https://openfoam.org
    \\  /    A nd           | Version:  7
     \\/     M anipulation  |
\*---------------------------------------------------------------------------*/
FoamFile
{
    version     2.0;
    format      ascii;
    class       volScalarField;
    location    "200";
    object      p;
}
// * * * * * * * * * * * * * * * * * * * * * * * * * * * * * * * * * * * * * //

dimensions      [0 2 -2 0 0 0 0];

internalField   nonuniform List<scalar> 
11372
(
-30.3239
-35.6127
29.5691
-37.2064
0.782596
-36.1996
-6.79041
-31.904
-13.9151
29.1384
-4.24057
38.1202
-23.6551
-1.18231
3.10712
-36.0044
-19.2879
-9.06274
12.1919
13.9538
-33.0766
-0.660099
-7.78324
-34.1801
-12.6902
-0.0492836
-40.2599
5.59326
12.1572
12.7883
13.3595
11.0334
1.55465
1.05081
56.0838
-1.63893
-1.43227
-3.74771
-7.19593
-8.95845
-24.7422
11.8537
-0.659891
43.0671
5.1286
-26.3133
-8.53111
-37.029
-38.8862
-0.351697
-34.8942
-4.89384
29.7817
-15.5862
11.3991
-4.70676
43.1613
-37.6633
-0.0320552
36.2034
-25.8419
-12.9552
-0.926297
-32.8836
-15.4082
-2.09096
-14.8561
-38.9924
23.1812
-32.3898
-0.16239
-9.12641
-1.50116
-3.29694
-18.6837
11.482
-37.1514
3.22213
10.7724
-36.9259
-33.6922
39.8722
61.9898
12.8963
-82.3194
-38.7535
1.43764
-10.3647
20.7389
-34.8926
-1.18808
6.18186
-37.9663
9.08145
2.10099
-5.90568
-22.0338
-26.8387
-34.0367
1.80027
7.87326
25.6024
10.229
-0.615431
12.7353
59.4384
-35.6566
11.1698
4.05018
19.2554
5.94365
21.9389
-5.47861
12.0622
-35.839
6.88532
-30.7359
5.31461
-1.5814
-25.9987
-37.5086
-22.4456
0.353596
6.94507
33.5654
13.1233
-13.4581
-24.5478
-1.00464
-29.5315
-21.7969
-8.14062
-35.72
-24.3274
-12.8284
-2.02821
-7.5973
-9.89391
54.6883
10.9315
2.4988
11.3787
-32.8275
9.56134
0.635603
-28.1197
-38.9822
14.148
13.1376
-32.7992
-9.58802e-05
-22.0234
-14.9368
-36.3638
8.81105
-3.06436
-12.2212
-9.12266
-32.5977
13.2521
-7.87894
-0.699959
-25.9322
11.13
-32.3363
-13.6358
-18.6756
-36.0142
-0.953285
-4.78035
-41.0858
-0.868134
-30.5287
-20.047
-16.4665
-40.5779
11.5257
-39.2195
-45.5089
9.47912
11.0784
14.8502
-39.4728
-34.9548
-32.5736
-32.179
30.2018
-29.9163
26.0734
-38.6693
0.0610508
12.3882
27.2365
-8.14356
-22.1821
-7.3738
-39.2245
12.7706
-29.6112
-9.89331
12.8031
18.7098
15.8906
-8.29808
5.30185
-3.88127
0.375132
-12.4412
-5.94447
27.5484
-40.8284
-10.1608
-1.8526
13.6258
11.7101
-18.6786
12.1376
14.43
-9.42617
-36.3522
-35.3313
13.9335
59.7
-30.7572
11.3578
-2.36666
-34.6258
-4.06418
10.9186
4.50175
11.4184
10.9259
-16.6961
0.815078
-38.9554
-33.0571
-24.4476
-1.59177
-18.9307
-11.961
10.9591
-39.4862
8.96653
5.64382
13.7283
4.78814
13.864
-26.9889
9.79865
-41.8635
0.700952
-0.360642
-79.4497
-3.06232
-32.4671
15.6333
-30.8321
7.20568
19.2191
6.64786
-22.4613
11.6758
-20.6991
12.61
34.6382
-10.4075
-9.29504
-30.4709
56.6982
-15.8246
64.999
-19.9271
7.36359
-11.6101
-7.08549
-32.917
7.5517
1.68144
5.77337
0.0699167
0.679953
7.9266
14.0582
6.26972
-28.9998
0.888353
-32.3366
-32.9987
-2.84842
-22.8642
-41.0233
11.9768
-39.906
0.567728
-33.211
8.11325
-40.6988
3.67352
-5.48893
-34.0165
11.0287
-28.843
57.2589
-3.07953
-0.405186
-16.6579
42.8848
-0.080921
10.1196
-3.60932
11.655
10.5878
-24.4569
-58.826
3.54985
8.9956
-32.95
-17.6433
-12.0438
-29.8447
5.34107
-36.4218
1.39665
13.7291
13.0011
-37.6788
-27.7233
20.9151
-4.36164
-6.36786
-13.2763
12.7286
26.4777
-23.3819
-6.15306
-17.6356
-0.569973
-33.0884
6.27506
-5.92695
-34.8212
-12.4522
4.24945
-8.10821
-2.72253
2.02843
-5.60076
-4.70231
34.9334
11.2022
35.728
-13.8841
24.0091
26.9946
12.3534
-25.8628
42.7118
22.0998
-6.02515
12.3775
-4.86592
-15.5011
13.4655
-0.0760962
3.42488
-32.6401
-14.8538
46.9974
26.8679
13.8357
13.0828
-2.71648
-34.7322
-38.4241
4.51341
28.9481
41.7283
11.7033
-28.4289
-38.9828
1.9092
13.1442
-6.88569
-16.9498
8.13287
19.2398
-39.7042
5.10175
-25.364
-3.38623
52.6825
-33.2089
8.03009
-5.60199
4.17485
-12.2832
-0.42445
-69.9676
-7.70895
-27.2597
19.1106
-5.99896
-2.64371
-38.3104
-1.15141
-5.28698
57.1589
-29.0798
-12.3342
-1.77319
9.41205
2.45039
-1.08886
-39.2762
-32.1603
-36.7985
-30.0791
11.7674
-2.89615
-2.19418
-2.51523
-0.655885
5.33409
-22.9091
12.1643
10.5787
-32.9483
-5.6947
21.0313
10.4863
-2.78014
-1.499
-1.75306
-35.3556
-33.8367
6.01688
-21.9639
13.7384
-35.4177
-5.12228
-16.0205
-0.766675
10.0895
-4.38549
1.01173
-35.3568
-35.0249
12.0805
-32.918
46.1823
-2.62209
-33.3768
-4.21279
22.9473
-22.4018
-26.4939
-10.438
-30.6022
11.543
0.0122832
1.12995
37.7355
-26.3696
-8.29997
-31.0149
28.0704
-4.23549
-22.1622
-16.0313
18.1234
-8.3945
28.1743
13.1821
-31.8785
50.6071
22.9002
-21.4588
-0.468527
-0.780955
-31.4663
13.7183
59.3231
-33.7297
5.09325
1.54274
-35.7369
2.34947
-15.4752
-0.188282
4.58917
-32.7747
-0.411863
7.04696
-0.465747
-9.40573
19.5106
26.1256
-2.44057
13.1604
11.3393
9.94593
-31.9005
-30.3609
-32.8547
18.4649
-8.51691
64.6412
5.47376
-34.5251
0.751864
-35.5178
-9.61119
-17.5724
10.6562
10.6944
8.95238
22.5561
16.0167
25.9884
-12.2006
-24.8465
2.41689
-2.86334
-6.85008
20.3818
4.61691
-38.138
1.37367
-32.1459
-6.97873
3.714
-1.11666
4.00986
-18.0512
-0.851602
-8.07806
2.60958
-3.19529
-16.313
13.0831
0.0654245
-32.346
8.44993
18.8627
14.6703
-13.1963
14.9653
-4.73934
-34.9656
-37.2154
0.816883
-1.99826
-25.6159
12.0126
1.55388
4.53265
45.3239
11.2911
-7.41438
-35.9656
11.2647
4.61445
-0.412672
-24.8795
0.250361
-11.576
35.7651
-31.2911
-12.9883
-4.61535
0.86218
-1.13464
5.12176
-45.7611
9.86802
20.979
-31.4199
-31.7365
-1.06545
7.90318
-33.7596
-13.5704
-28.9024
-33.8074
-14.8123
-0.265879
4.11926
-5.12429
-38.2294
-0.346489
1.60872
-5.32036
-1.13352
-36.1802
-25.768
-10.7075
-15.7166
-0.509633
-35.1482
-34.1556
-20.4163
-19.8291
5.43841
-36.3757
13.0152
-14.3037
-2.52604
-5.17222
0.493342
-33.4656
-38.1463
-0.539177
12.5565
9.10693
-18.2298
-7.14381
-27.4228
-0.775125
-22.2625
-38.0664
-27.4283
-21.0415
25.9035
26.1471
11.0731
-10.3806
-26.5944
-21.6533
-27.1034
4.71511
-34.8569
11.9889
-19.4412
-1.55255
-23.8999
-24.1789
-37.6739
10.4336
3.60834
-10.3873
9.77533
1.73786
-0.118272
0.250414
13.7297
2.59445
-5.33319
-30.5644
-34.8175
-0.369892
-0.33062
48.0783
-3.65914
29.7824
2.22792
-4.04163
10.0927
-34.7081
13.5674
47.6133
-1.20949
-0.193207
17.313
-59.0333
-0.203544
-36.5881
51.4377
45.7948
-9.75877
-22.6301
-29.6711
20.9502
12.725
12.9107
0.636221
-14.6519
-4.75154
5.72155
13.9224
-15.8435
12.6344
-0.576603
-39.8549
-30.9807
-31.9899
-2.68904
0.777051
0.756794
8.33137
-7.70911
9.16491
10.1297
5.04407
-15.509
11.8941
-5.20607
14.9951
11.6895
-21.5485
-4.59176
-33.3389
-18.6168
-26.8718
1.45123
-12.1176
6.53735
4.45963
8.08069
3.67177
12.1952
-33.0597
-32.079
7.35951
-33.9826
12.9844
15.523
-0.307484
1.23042
14.1305
-3.05815
-31.0623
-5.17946
32.2398
-9.03991
-26.4779
4.0565
1.89951
1.51083
-8.29948
25.784
-38.6091
5.23429
-2.86253
-10.3604
-0.568249
-21.4258
29.0892
-21.6081
-1.88083
-3.82735
5.0487
-58.3953
-8.82141
-13.5663
-17.1504
28.3236
25.656
-32.3621
-39.5241
-38.4975
-33.5659
-35.4246
-18.2344
31.4585
-20.9367
11.722
-4.20031
8.14867
-40.0136
-0.832123
-39.7277
-32.4012
-25.58
13.5867
-8.59555
-5.76746
13.5435
-0.730021
-25.4163
2.90978
-33.7741
9.126
-19.1426
-5.4463
6.84544
11.151
35.0698
-13.8653
12.5649
10.1541
-31.1692
-82.8044
19.463
-34.8475
-0.869685
-31.8474
11.0328
-55.0026
43.2384
58.4959
24.382
-2.31163
4.89932
-0.174174
-39.861
-39.508
-9.88273
57.421
-6.58706
-12.5512
16.7496
0.949359
-5.65261
-35.634
-36.1909
-1.82326
15.3192
9.24653
-26.7151
-33.5728
4.72915
-33.7378
1.76395
0.678319
5.2176
-1.48314
-27.8403
38.6743
-0.564214
-23.9946
-21.1008
-34.4323
5.80586
-31.594
2.16633
35.822
-36.0128
54.4697
-16.1659
-2.55719
-33.0039
16.0878
12.7788
27.0279
0.641272
-33.0045
-87.6471
-26.7004
-5.79459
13.1726
-39.1882
-31.3455
-18.6982
-38.3289
1.97577
21.2784
-20.6186
29.4567
-12.4807
5.082
-65.6877
-15.7572
-20.9924
12.931
14.9179
-38.0967
0.172631
40.4629
12.311
0.901417
-32.3822
0.18972
-4.29333
-23.8788
-34.5685
-10.1324
8.48371
41.3077
-2.04859
8.79982
4.70819
1.06265
-15.1935
12.1785
7.90624
-22.1753
27.0853
18.9656
-33.5789
-11.276
-3.00578
-21.4582
-13.9955
-0.611378
5.42252
-7.68908
37.2329
2.75131
-6.51124
-0.714673
-2.73493
-16.917
-4.24253
-2.78342
-12.3376
-11.6528
4.37722
8.35111
4.44032
28.0534
10.4861
0.864568
1.58669
11.0429
-28.6205
-32.5611
-3.38786
1.39097
-0.348887
-40.2094
-3.052
1.44544
18.9335
25.1979
-14.4238
8.19108
1.393
-2.11934
-20.525
-22.1875
16.0888
-3.73371
0.978734
-36.6782
8.29449
-36.572
-12.6467
-38.8157
21.4763
-1.23867
4.52059
3.63104
-6.60654
21.8717
11.0119
25.5112
-33.4841
-0.479589
11.2359
-29.8184
15.7046
9.06721
-1.64177
11.2093
20.6207
-0.157612
-36.5983
9.47874
-1.44681
10.5933
-3.5581
7.62292
5.54193
-28.2132
-1.8681
-3.50163
-17.6616
-2.0647
-36.1084
6.51225
3.61709
-60.1972
-2.77134
0.168425
8.61584
16.9005
9.74247
-6.25076
-13.0569
43.7642
-18.993
-6.18661
-14.4972
-4.1547
-26.0483
1.00305
-2.32857
0.516783
2.34492
18.4488
-37.6496
-2.53071
26.0605
48.2289
-19.2215
15.8942
-24.6545
10.4853
11.8921
21.5151
-11.4403
12.6007
13.3772
-9.35924
17.0809
-39.9621
1.83495
36.6733
4.35966
-34.2074
-19.5984
-16.4898
12.6324
-6.78907
-0.175226
-13.4631
-1.75756
3.96705
-32.8344
-3.59385
-7.0934
-33.709
2.24809
-9.57829
-0.153495
-34.4487
6.70505
18.2643
-12.3417
-1.31743
11.344
-25.0221
7.78425
-7.85054
9.56428
3.51747
61.0868
-35.8272
-7.9584
17.6788
14.1624
-36.3419
0.947331
9.12309
-36.1338
-2.32672
22.8541
4.18779
0.375452
15.4481
-3.92666
-24.8611
6.08762
4.16139
-5.83827
-30.7241
-6.55067
-21.492
-37.2429
1.2889
-7.75371
-37.861
9.90263
-6.20203
11.2865
13.934
2.86785
-32.1497
9.84118
13.3546
-35.6564
-2.85712
-22.5639
-10.2857
11.3262
-33.7009
-39.0455
11.023
11.256
-18.5573
-16.0257
-38.9632
-34.1238
-3.95906
-16.6611
-19.4624
35.3994
-1.29952
-8.21197
0.841189
-4.86847
-30.1679
19.3733
-11.1295
-8.60799
-3.21944
-3.66815
0.570577
7.35354
-3.77634
-40.2788
-34.5229
0.121327
-33.8304
7.62981
54.2639
-1.50357
-33.7991
-35.7205
-10.6825
6.10923
11.2253
48.0174
11.6833
17.2321
-27.6088
-33.2995
-12.0602
56.4933
11.6614
12.8139
-35.8541
-37.3552
-33.0685
-31.9505
-7.80084
-24.3209
17.1377
-2.91839
-3.48535
25.873
0.0530814
1.37221
-31.6526
15.2535
-19.3706
-1.27319
14.2312
11.4387
-28.6288
1.41011
-3.9642
10.0737
-3.79865
-8.04879
-2.43058
-3.8567
-34.5246
-40.3061
2.43431
-48.5998
12.2798
56.4991
7.204
-31.6879
-16.7494
17.5636
-4.56681
10.1008
-47.398
-3.5021
-33.8272
63.1274
55.482
1.0502
-39.6822
-33.9483
8.29607
-1.82483
0.959425
55.5733
-14.4579
10.0088
-0.749896
11.0647
11.0985
63.6003
-33.2308
-2.06701
9.32852
-2.52131
0.840021
0.374962
-30.8661
-17.85
-2.42915
26.4048
7.98261
-15.3465
-10.0285
20.4722
-0.500713
19.5546
-2.15973
7.82428
-0.994214
-11.54
24.9367
20.4983
-9.88517
-14.7243
-15.3928
-32.9592
-0.012128
19.8756
0.447041
-0.628101
-32.4778
-37.0032
6.52933
-32.0372
-4.05126
-19.7902
-27.5368
1.88066
-22.1598
-26.5515
-14.1417
43.3151
2.75186
11.2586
44.3057
-3.77263
32.7455
-38.5917
-2.03381
10.6453
-3.12368
-35.9218
-6.72181
44.4168
16.9456
-38.3999
12.4009
-26.551
14.6753
-35.222
-0.200673
-31.2508
36.4007
-1.6175
2.0556
-24.759
2.96136
-4.62126
-32.8056
-0.89029
0.21304
18.4464
-18.8826
-35.2448
-34.4892
-49.3213
4.13595
-27.6838
28.8371
11.3992
6.74718
-38.3627
14.203
-3.21709
-3.60928
-13.7241
-0.0840758
-34.6732
5.05291
5.30352
-4.22031
-24.9098
-24.4356
7.56225
2.05074
-7.82212
-15.8105
-36.7148
-39.4061
2.08016
-28.6883
-19.6611
-28.1956
43.3734
-20.2003
11.6138
-16.6137
11.1592
-31.3108
6.20883
-6.67561
7.98298
0.0827568
5.58727
-15.2185
-37.4533
21.7237
-26.6468
-34.5154
28.4738
-0.455441
-29.2467
12.1831
-3.24818
-1.60247
10.2474
-39.8464
-21.104
11.8923
-33.4747
-17.5135
15.7613
-38.5293
9.48322
-5.40669
-2.20055
-4.87659
-20.5611
15.5218
-21.1999
10.6306
-27.3394
-27.8317
13.3824
3.69545
8.28647
-9.29517
23.066
2.44837
-4.08508
3.26355
2.0021
-0.359809
-9.12931
10.7447
18.2165
-0.311975
-82.993
-0.746556
-2.49538
-60.5557
1.87564
-6.20875
2.72837
-32.5447
-39.7508
-32.7618
-5.79884
-5.25386
-21.2225
37.2684
-0.730143
-31.0532
-27.7907
-0.0447495
-15.3837
-16.5813
43.0488
12.137
-5.16835
-33.2157
4.4495
-23.6505
0.136455
2.35216
-33.6801
16.5977
49.7582
-3.44104
-36.1411
-2.72128
-6.20624
-26.0318
11.2632
-32.7106
20.3092
52.1533
-19.0606
10.9299
2.0419
30.4123
-9.37847
4.77392
28.8726
-4.51006
-0.838814
-25.6944
-37.6083
-30.4521
11.8884
44.1445
14.6059
19.1736
-38.7328
15.2537
8.51736
-8.40688
20.9035
0.593848
-15.8533
5.73588
23.4209
15.2659
-31.057
-15.2139
-3.11386
2.58977
-12.2205
-34.9267
-10.8835
9.73344
65.2733
-22.6588
-25.1947
-8.49752
13.3435
-38.2947
16.8235
-5.46326
39.1811
35.5313
-5.94972
49.0775
-35.45
28.9088
-0.410201
-27.7075
-12.0243
5.97585
-38.2983
44.7607
-0.890601
-0.20323
-5.61974
6.12561
-1.87078
-4.90397
-35.7405
9.53446
-14.3219
-13.2174
49.8526
-24.1944
-41.9782
5.48011
-54.562
13.022
-16.5342
-3.12648
-22.9722
-7.80649
-0.649955
6.19349
13.5511
11.4432
5.24307
-20.7698
-6.73541
-23.8342
30.3552
15.1159
-9.61469
11.1181
-1.12019
-31.6325
-24.2598
23.3908
-7.67421
-7.87684
13.8505
-10.1862
-4.1896
6.23299
-0.0758987
-4.50694
-39.5563
-10.7215
13.2446
-37.1208
-10.7325
-33.81
-32.5098
-1.35638
12.6532
-34.5618
11.3873
-4.88981
12.4547
-8.45068
0.537988
19.8778
-32.941
-37.6533
13.8435
-21.5886
12.5778
-32.5963
61.1683
-25.8416
-61.6489
33.4078
-21.061
-33.1909
3.85201
-39.9432
10.0469
0.221366
-32.0774
-2.96825
-6.02658
45.0894
-25.5854
38.4643
-12.4025
13.5983
-7.66297
0.805447
-38.1296
-33.8498
-13.2849
60.7952
6.39924
-6.26323
-33.3795
-11.9769
-8.63999
-39.6074
-10.1957
27.7217
10.3918
-57.0984
47.1204
-16.4949
1.59911
3.85765
14.0679
10.7489
14.9863
-8.15268
-5.06272
15.2821
-4.04454
-1.1014
18.3594
-0.667931
4.63014
-1.3965
-3.23223
-4.95731
-19.9629
0.0426829
-24.1721
0.556718
-19.7636
-25.847
-35.0685
-39.4294
-2.8098
-28.1583
-8.87292
3.76205
-4.65607
-38.5344
-36.1908
0.182897
-3.24733
36.385
-37.0778
-8.37226
-1.33175
4.73794
-35.0133
-8.30756
11.6717
-36.1467
-1.76094
-26.1935
-9.36613
-9.96316
-5.84408
-34.421
13.8857
2.89475
-1.86991
-0.554478
11.5954
-38.745
-14.6326
10.3605
-33.1404
64.2293
-3.65548
0.0536381
7.76659
1.18064
6.76577
-1.80659
0.575964
-16.7444
13.4643
-18.8409
-1.28706
0.678536
-34.6676
15.8785
-22.3993
-15.5576
13.9985
4.72988
12.9384
-35.1243
-29.616
-61.4728
3.64088
-3.63919
-3.6173
0.150611
4.25862
2.1836
1.97196
-15.9871
6.23564
0.49738
-29.8688
-26.6623
-7.15367
-2.78535
15.5123
6.23897
-1.41376
8.87863
-20.6639
-6.45551
-7.38124
-25.5416
1.60129
-1.21194
-5.25666
-10.1673
-26.9218
-14.527
17.5898
-13.0832
-1.12601
-0.154145
6.56697
59.2076
2.54004
26.9052
-11.0846
12.8533
1.7485
37.3144
10.2399
-0.329264
51.16
8.97421
-4.16989
-32.5528
-12.8041
-14.8167
-32.1521
11.2669
-39.3325
11.6338
-1.20136
-33.9962
-30.8359
10.5849
7.40393
9.68331
0.964943
-34.2189
12.1673
-36.2468
-8.54706
49.9799
-15.2936
11.2919
-61.349
-32.6208
41.207
5.27668
-19.1623
-31.4738
-10.4702
-0.037019
-22.0345
-4.51183
43.8537
-1.67872
-8.52229
-29.3382
-47.9108
-2.22267
-4.55414
13.44
-6.41509
-37.4206
-30.5533
-0.90318
-33.2748
23.278
-3.39385
-6.54244
-8.97532
-20.1352
-4.33213
11.0814
-0.58701
-4.26337
50.8771
17.6593
-14.8796
1.07701
1.06175
-1.23055
1.92189
-36.9348
-57.0399
-2.09169
10.2761
10.296
41.8542
0.178941
24.6343
13.9743
-2.29551
48.0108
-36.9723
-0.418686
-10.2157
-37.295
-29.0777
9.85676
18.4881
-7.94947
61.2413
-21.4724
-40.7526
38.4232
-6.4446
-9.46114
-2.6441
24.0141
16.7341
-33.5867
-39.5011
-6.24595
3.40086
13.3791
1.03469
-18.9078
-3.38736
-34.7408
2.44402
-8.06821
-4.91427
26.2298
-20.3283
5.48619
3.39293
-33.7776
1.11187
-0.151869
10.818
0.0258754
-8.82241
-6.7201
6.61998
-3.98206
-35.6317
-19.276
-2.7511
-7.30571
-0.746278
0.717589
49.51
-38.9401
-22.1208
-0.608054
18.5904
55.8108
16.7347
7.6865
25.5066
-5.25828
11.1445
-6.48091
-5.87627
21.8021
-36.0507
-39.3943
-5.06548
-33.0598
-14.4876
22.3712
-38.8144
-27.2026
-3.16709
2.81142
1.61497
5.03661
-24.9929
11.3929
-33.135
-5.79166
-39.7322
-38.6778
17.0972
9.28685
0.996827
-18.1042
14.4909
-3.22107
-24.807
-13.3223
15.1019
-33.8382
-4.76139
-2.47965
-0.443742
-1.09337
15.473
-34.116
9.80928
13.8123
-23.3681
-3.56829
-32.6344
-18.5986
19.2312
-39.2599
-1.75615
-0.0350555
-28.7013
-37.3269
-39.0335
2.87922
21.5037
-50.4379
-18.7219
-0.437676
-0.294182
-6.35777
-32.2885
-37.933
-19.1701
-37.9142
-30.5228
-19.6303
-40.7744
-18.5953
29.5098
10.6456
-4.19571
1.6022
-22.541
5.25832
-30.4196
-17.2409
-21.5314
0.881826
-20.5363
-15.7659
3.23036
44.4824
-1.26337
13.2696
-40.0448
-45.8826
12.4382
26.2785
-33.1228
-23.4613
-4.5127
-10.776
9.03455
-19.6475
3.35762
9.36172
-3.71275
1.42191
-4.30975
-1.54791
-37.1208
-30.0783
28.7797
-4.46097
10.4234
-7.29151
-44.6228
-4.70625
-32.8204
-5.476
4.81639
8.9319
1.12339
11.9239
-21.7198
14.9016
-41.011
-26.5202
-0.279823
6.43833
-17.6875
59.4313
-4.1932
8.91615
0.935628
-7.3231
-1.33247
0.106047
-33.061
34.3442
-34.4465
-35.6328
-3.1732
-15.1281
8.95813
63.2564
9.89961
-6.92441
-2.66946
-0.552186
42.1313
-23.7313
-2.55271
-16.9776
-13.3995
32.3513
-32.988
0.140799
0.267146
-32.6759
-34.6575
0.283497
-1.3036
-39.3044
-1.63276
-36.9916
-3.33815
13.6855
63.3655
-7.08851
-36.5922
6.5299
3.00449
11.5714
12.9193
-4.08242
3.0745
14.7047
11.2465
-2.38706
-16.1415
11.6021
-23.8211
27.0455
-21.3016
-20.8081
-4.16473
-30.1172
-1.96231
13.2382
-7.57284
-2.61647
37.4248
-30.52
13.0111
-38.8203
2.80958
-0.00835811
-16.4482
11.7563
-0.434655
-16.7167
-22.3227
9.6791
-16.0242
0.315845
-5.76401
-32.7893
-34.8211
-53.3875
-32.1347
-21.6542
19.5011
-13.5467
-2.17878
-0.207328
7.36937
-32.0746
10.7507
-4.43387
-29.2298
-33.0397
-15.2198
-1.38387
-0.333393
12.4782
-9.95759
7.12035
19.8564
-31.157
-25.5008
-34.4855
-27.8456
-6.91505
-3.63484
-1.44522
-38.8021
-31.8212
-5.28962
-21.4045
3.56575
27.3036
-3.93938
8.17674
13.7474
-39.8007
9.60058
30.5679
-32.8706
2.62441
55.1285
-28.2512
-35.7845
-15.0881
0.571964
-11.5728
3.49827
-31.7664
-11.0596
10.7637
9.7074
14.4989
-8.90439
10.9162
-27.3207
-13.9492
-34.5127
-4.76244
13.5918
-32.4041
12.5941
0.19982
-2.16723
1.5225
57.2428
-33.312
-32.9521
19.1771
-9.71687
-11.0135
-26.9788
-2.89698
-34.8948
16.0642
-67.2772
-4.95354
63.4472
-14.9829
45.9152
-4.07516
10.7648
-23.5604
-34.9567
-2.6958
4.04019
11.8755
-7.99007
-36.6073
4.52228
9.36535
-11.1903
0.773814
57.0906
18.7614
-0.258037
-9.93452
-13.9783
-32.8603
2.43891
-13.491
17.4973
-2.0628
4.75388
-3.48863
-10.7924
-5.00769
35.1219
-1.77591
-32.9232
-1.95327
16.3013
-33.5328
9.10656
11.0482
-7.99109
14.8449
-39.9137
-5.34342
-21.2662
-31.1199
-40.3428
-10.8743
-35.971
-29.0313
9.25376
-30.9695
1.6962
-16.8031
-4.99382
-33.6295
12.1008
12.2561
-40.3745
-14.4671
-8.70341
-34.1303
8.46259
-32.9334
30.3957
-6.52178
24.2562
-16.5681
-17.6231
-7.99402
-32.7043
33.5221
17.4673
-39.8543
-0.153005
-34.8077
2.79972
0.37089
-75.5943
-40.4177
31.8998
-9.11476
-14.1967
10.7969
-6.0826
3.60388
17.1658
-0.670565
-39.6277
-5.38101
-4.91709
-12.9027
-22.405
2.41637
23.0332
-9.51981
22.992
9.90289
-8.71171
-2.88553
30.9611
2.0986
-0.275427
47.2609
-12.7005
1.59046
-32.1637
-31.5965
17.0142
15.0449
-12.3416
-14.6513
4.9701
-2.68579
-37.5494
-26.4421
-16.6475
5.24298
0.641344
2.34214
-20.6457
-5.63511
64.5904
-0.139294
-2.76813
-19.0692
22.7329
-37.9141
-1.30351
23.4146
-36.8302
13.4704
-7.99878
-41.3047
-5.70266
-0.371235
10.396
-20.5385
-0.0388478
-4.23293
-6.77561
-4.84139
-0.358196
12.721
-7.01151
-9.19963
-1.03606
5.74296
-6.47693
-0.527135
2.62224
-3.3012
17.0009
18.6053
-6.92726
28.0561
-47.7609
-12.6271
5.14421
9.11479
15.107
6.81038
-27.9535
40.0979
-33.0932
6.28198
-6.4704
-1.10407
-22.3044
-0.794781
-17.9429
-31.6418
13.1927
-9.73672
-14.7354
-23.4757
57.7291
-24.2167
51.3861
16.6195
1.03393
-1.78693
9.27772
-35.7194
-10.4839
47.7549
-7.90788
17.4744
4.19601
-4.63117
12.378
7.19611
16.3508
-31.2199
9.5704
-2.88938
-31.7752
-4.89087
5.08815
-37.1214
8.6603
-3.24446
5.24642
7.36974
42.3109
-1.2556
-20.1207
2.45519
-31.5517
-2.5829
-3.16241
-20.4723
-2.94273
0.848162
2.22943
-18.0627
-3.2616
-13.217
9.6703
38.8913
6.90598
32.7492
20.4985
-4.95561
8.40511
-2.47295
-0.320477
-24.7952
-31.8409
46.1859
-35.1519
1.61545
31.3062
-1.69121
-0.733534
-32.0272
1.6814
-23.4668
-27.905
47.7965
10.0269
21.8377
-2.88303
7.85178
21.4314
-13.4735
12.8026
-7.67116
-9.60479
2.13422
-0.236879
-1.59088
0.368714
18.8296
-27.5462
-3.90688
-34.6438
-39.6364
-11.9916
-34.546
-0.0050624
4.29743
3.33709
-1.98243
-37.0617
-9.66341
21.6567
-0.605068
43.8688
15.9529
-3.92256
5.12533
-4.62354
-16.4632
-5.8269
14.3777
-0.670809
-33.8518
-41.5227
49.6808
48.1837
6.88867
-0.646124
-4.72576
28.838
-104.8
12.075
0.587876
12.5905
3.63651
-12.5182
14.4469
-32.3498
18.0723
9.02504
1.90113
-10.8905
-4.77399
7.81116
-16.4037
-0.712956
22.6753
-34.8109
-22.1889
12.8685
-6.35384
11.4449
-14.1027
-2.90356
63.5029
-26.3541
-27.7623
7.38472
-0.525183
-23.6752
35.1058
-38.1014
16.7093
-34.423
-36.5419
-30.0358
-7.00748
-3.03194
5.77167
-36.5025
14.5642
15.8091
-24.5985
-1.80917
30.6855
-11.0585
-2.58707
-32.4599
-27.7525
0.0646262
-71.4266
-19.8788
-7.71428
-0.0208004
6.25575
0.431258
3.32053
13.5885
-14.0103
-32.6122
-31.2138
-4.23136
-12.2582
5.18096
38.6906
-23.3889
15.9462
-33.1006
-1.29209
15.5916
-30.832
-7.04669
50.9892
-33.4234
-33.7851
-35.8565
-1.33841
18.0149
-40.5298
2.46308
-94.0084
-1.29465
11.7439
-3.99979
-9.69584
-8.83677
11.4426
-14.0475
11.1113
16.1555
-2.274
-39.1297
1.98248
-0.65403
-0.0730715
1.33178
8.63668
-4.01164
0.40523
-0.268355
2.43395
-6.72673
31.5307
-54.8355
-7.73663
-2.24365
-0.594339
25.4378
-16.9491
-2.4165
40.236
-21.5803
62.5933
-6.01163
57.5984
-64.7753
-19.8739
31.0379
24.3597
-36.0143
36.1921
-21.3409
-29.7581
55.7124
-9.05855
13.186
-27.6748
-9.92393
-13.1606
-33.4091
11.2252
-8.7924
7.96024
-19.3804
-27.8699
3.03648
-10.1101
-9.10477
5.86778
1.37947
1.16234
34.6497
28.5604
18.7459
14.959
-18.7841
2.30473
-3.17347
-32.9994
-10.5448
8.2676
9.23202
-5.70371
12.4137
-35.8727
62.3616
-0.740829
-22.0362
-3.79869
16.5807
-8.15404
-8.32401
2.14905
37.536
0.477069
-27.6213
-6.22494
2.58096
-39.6456
-13.2367
14.6689
-0.912832
2.71526
-36.8689
-22.3577
0.241174
8.63378
8.99491
-4.80192
-29.2551
-37.2541
-8.81702
18.1773
-2.08971
4.58454
-0.435094
-33.8695
-28.4662
39.7627
-35.0793
-8.05372
30.3447
-24.5124
0.727004
0.733087
-54.8476
-32.7517
-0.746043
8.31064
33.6171
10.4769
-17.3522
-0.4764
-33.2488
-38.9724
-9.0621
33.7278
-0.121744
7.66067
-4.64868
-2.12137
-6.88231
-27.5156
-19.3708
10.6392
-11.7657
-28.903
17.12
17.1814
-13.944
15.9606
-0.133263
-15.919
33.2717
0.21412
0.84905
0.461218
-13.6922
-1.67022
0.760381
-3.24106
-22.7503
-35.7104
-1.96014
10.5564
0.910339
0.639504
11.6842
-16.3011
20.9942
-64.2522
-13.5709
36.2234
16.7965
-0.120401
0.161412
44.2977
-32.7938
-40.3185
12.8704
-35.602
3.88869
-21.8272
1.22785
-8.70507
8.47496
-17.9466
50.3902
-4.93945
-11.0695
7.7088
1.37877
8.71096
12.3567
-33.6473
-14.1952
4.07395
53.431
2.37124
20.4865
-2.47036
-12.8255
18.7513
12.904
-18.1927
7.76146
17.4669
-0.618381
-15.1759
-11.2466
-1.61641
2.23348
-2.86725
-34.4857
-31.7117
1.29713
-5.39949
57.1485
12.7823
-34.3438
-11.0529
-34.3232
-53.9866
-1.54211
21.9088
3.45043
-28.9017
8.66726
11.1102
0.264249
-6.57369
-34.1315
5.07756
-4.2816
13.4471
1.70391
-22.7138
-37.7666
3.96628
14.0503
-17.0875
5.93986
-14.5756
-9.68955
41.8948
10.3101
-31.6024
17.1146
-3.99348
-17.4169
8.51421
-40.0692
-26.4027
-23.0337
11.5702
-3.29536
20.2446
-33.8421
12.2686
-32.9829
-51.7713
-6.94865
51.0572
-6.30933
3.84789
21.2459
8.94231
-34.7534
17.6716
-3.48203
6.75499
-38.5556
2.4643
-34.0052
-6.10493
43.3021
17.662
11.5449
-12.3633
-57.6906
-16.607
-17.8706
2.74179
-3.97581
51.1592
-31.0645
10.3552
-7.16195
18.2133
-3.62272
-19.8453
15.5523
11.1541
-4.70454
-6.10586
-1.04703
60.0264
-17.378
8.06093
-3.03681
10.8755
-10.1408
44.652
-2.70567
-30.5921
-14.5861
51.9352
13.2632
-2.49141
-21.2977
-13.7953
-3.03932
-4.62192
-26.9714
2.31513
9.66352
7.96556
-0.744513
-0.495014
46.4783
16.5387
42.9011
22.2534
22.3572
-34.5223
-27.4233
0.08513
-4.49249
-39.6297
15.268
-30.3797
5.79696
-27.496
-13.8708
-16.2977
-0.086875
-47.9577
3.4472
-12.8532
-30.5053
-31.0776
0.950657
-0.336518
-33.835
-9.36901
1.83884
11.4833
-5.44574
0.000924002
-12.0477
-12.0055
-12.5136
-16.2637
33.3841
-12.0019
-6.72837
-15.6383
15.7058
-34.6624
-6.84914
-5.85961
-4.79602
-11.8751
7.66314
1.94613
40.6911
-25.3476
15.6417
-40.9251
3.19124
-5.60218
-2.79902
-11.2796
-28.8732
-6.75474
-22.0682
-32.8967
-31.9642
-34.2416
0.536663
-9.18882
-9.47917
-33.0845
-6.10738
-32.9188
-7.48744
13.5016
15.2352
9.68651
21.3249
-33.765
-35.1575
-23.2132
-2.39701
49.6002
-38.953
-29.4411
-4.86753
-33.6228
27.7344
19.3887
7.12336
15.5461
-31.7968
-8.01112
11.449
-13.1899
12.2234
-34.3879
-8.54959
-9.58699
-11.8189
-10.898
-0.44179
-33.6469
10.2382
-17.6726
-15.6411
-8.21951
34.8199
-12.8903
-5.13526
-28.6965
-31.7149
26.9822
-37.7042
-23.6638
-36.8948
-0.436528
-37.92
-2.60571
-1.47729
35.9674
-5.74613
-39.3452
8.76463
-4.57551
24.6236
9.57069
-6.61244
7.65723
-32.1234
-3.94227
-1.92944
-2.26112
-16.4479
16.2562
-3.48411
15.5678
-1.06574
-11.8393
7.43426
-22.3633
8.8902
8.70789
-32.8349
-40.5098
9.4292
24.8272
8.83125
-12.7243
-0.712231
-46.5811
5.22048
-2.81103
4.74557
-3.86066
16.8659
21.5035
24.0517
2.22995
0.468842
9.74518
-29.586
-15.191
-35.3357
-32.8484
-28.5438
-31.6987
6.82329
10.5808
6.86346
-12.8366
0.693483
-5.73026
-1.40947
10.3517
-1.15047
-42.5432
-2.31331
-13.5927
-8.08632
0.108297
11.3755
12.5451
11.5078
4.71353
-35.5485
-31.1375
-0.740324
-71.1856
24.9445
-5.49107
-7.87497
9.96787
-4.07097
10.6787
23.5169
-14.9724
-33.4334
11.9253
9.62561
-38.8467
-38.6729
10.3813
-0.614366
-18.597
-10.449
12.4803
-26.8575
21.7621
-4.04643
3.3026
-6.40572
-23.2719
29.9935
35.2852
-84.2187
-23.9946
-20.8885
47.3489
12.3197
-0.655049
30.2384
-67.008
34.2543
-36.6718
31.22
-2.95184
0.187791
7.45808
-32.777
-2.5901
19.1784
-59.1185
7.70533
-6.32788
-6.52527
-1.36043
-36.7855
-32.9746
-0.464732
-3.40581
0.281142
-42.3124
-38.7218
-1.64644
-0.443902
-6.41181
-31.4053
-2.53103
21.7829
1.72664
-29.3755
-22.348
23.9463
-36.7198
12.0868
7.6497
5.79008
7.88367
-27.3807
16.3768
-1.70377
-32.8606
22.1386
-14.8547
4.99157
-4.31413
11.7388
-8.47345
-50.7015
-8.36728
-4.19819
-40.2592
-6.86654
-85.9098
-7.396
-21.4075
36.2136
8.98548
-1.4242
-2.72966
18.424
-39.4478
-0.809105
-25.0525
-17.7915
-9.58786
-0.0706583
11.5474
11.676
-28.5501
-0.0627324
-1.82529
-8.72351
37.3689
-34.3469
-34.5436
-11.3646
-10.6974
-31.5734
-9.79979
-60.4707
-7.96289
1.92308
-31.2499
-26.5085
-2.5523
-6.76201
10.9856
-31.5052
11.6147
-15.0882
-26.2369
-34.4408
-0.0234435
-2.06643
15.9071
9.14681
3.04884
49.6447
-7.52057
7.00378
-7.6188
-1.63043
10.4768
20.9342
-15.8767
-18.1607
-34.4577
-32.3176
1.33446
23.0517
-1.32569
-3.88348
7.56441
-27.8244
10.9644
-25.9506
-19.4183
-16.7776
13.1079
-0.87302
-20.8958
-3.72939
-36.7958
-16.4204
-15.5479
-0.661804
0.273579
1.20619
-71.9833
-6.22063
-22.5798
-36.3419
-8.04311
2.69219
11.4436
-4.46086
0.432673
24.6645
-1.10623
11.9923
0.405814
-0.630712
-33.7087
-5.22382
-4.86858
-9.80918
-13.1306
-21.1932
-24.3951
-8.63731
0.0256119
18.3352
-21.0786
0.535797
-31.0083
-31.9576
-6.80394
-21.2704
-12.6333
-6.62127
28.7662
40.4513
-32.9038
-30.4754
-12.2792
-14.0558
-18.962
7.85544
-5.20274
-27.8443
-17.4496
-6.74697
-20.7395
16.9593
-29.2075
-10.6271
-38.4237
3.67881
9.36289
19.4058
-79.7174
-0.540459
-8.42889
-2.15925
-0.498289
-11.9312
11.0744
2.3539
-33.2521
-40.7058
10.7842
-6.71941
-5.9582
-9.74386
9.04298
-2.13687
30.6436
11.1569
-29.5109
5.27664
38.6229
3.06973
-2.39432
-7.69517
-37.0629
31.4812
8.8697
9.76656
-25.0904
11.7388
37.8438
4.57227
15.4547
2.65822
-31.6158
25.0209
12.5647
-4.76104
-36.0972
-32.889
3.691
1.76264
10.2428
-39.4627
-2.32018
-53.8235
0.84339
0.319213
5.80393
10.908
-4.69215
-37.1807
10.4784
-33.7605
-3.15545
9.61111
-29.3147
-0.83752
-32.7331
2.90091
1.72486
-32.605
25.6319
14.2826
-4.54594
45.6827
-1.65642
-31.9626
-31.1916
-32.794
-0.194638
14.4265
0.717673
-1.93192
15.6483
-0.135861
11.1978
4.5161
-10.0116
-32.0024
-37.2078
-0.430815
41.9129
-17.2534
-27.9379
-5.85335
0.518537
13.0159
10.5515
-26.8203
-16.2826
-2.54258
46.274
-38.9643
18.2933
-13.1454
-5.27115
7.8733
-7.23517
-0.356166
24.8974
3.80142
-0.323392
11.1282
7.46936
-27.0443
4.90347
10.5798
-38.2015
0.0690802
-1.94915
-20.1436
-33.3859
6.74554
-32.6206
-31.3623
-0.519006
-28.6137
19.7992
-13.993
-13.8084
-10.3062
6.81384
11.5556
5.1876
-0.444216
9.07148
-10.8167
-10.0448
6.29674
-2.7508
-3.89345
15.377
-33.3188
-50.2811
23.0859
-0.584899
3.34146
18.1228
-8.93555
-18.1772
-5.83975
-24.5799
10.2199
-7.51969
16.4116
62.8631
-26.6917
-12.0498
0.966619
12.3348
7.08335
0.595669
-3.81113
-29.3767
-3.92625
-37.2413
-36.6695
-11.9582
27.0798
27.0828
3.03143
5.11104
-39.1696
11.5355
56.3307
-38.5465
-34.5231
-7.82095
-33.0912
-3.30551
13.7275
2.09197
32.928
-20.9731
9.15516
-23.933
12.9721
-34.682
-1.44198
39.0372
-35.617
4.72499
-37.1393
-33.2113
-6.87338
-0.772847
4.33301
4.87792
-34.6922
-14.3613
12.749
-0.19359
-29.6009
-11.9154
2.98131
-33.2467
10.629
31.6631
-25.8161
-15.0792
4.93098
10.3581
59.8326
-4.83671
21.5165
10.8211
37.5006
13.4796
-33.3697
-26.5819
-2.71241
-5.26476
-0.610672
-1.62726
11.9936
0.367567
-35.7814
-0.892903
0.370102
-20.8827
0.273525
-12.435
-31.4054
-0.630552
1.74444
-22.6214
-21.5521
7.10258
0.868999
12.2401
-29.3996
1.25399
10.2025
-22.7445
-2.19215
-5.01841
-0.695682
-6.39181
-11.2021
-10.0501
-34.5377
-0.85896
-16.3017
-36.5955
-46.4459
-16.9575
7.22449
-1.94002
-4.16237
-31.7443
13.8435
1.32586
6.20894
45.475
-0.241563
20.7214
-6.44311
-4.64123
9.4332
-21.2451
-18.5659
25.5176
-16.7955
-11.8285
14.7172
-22.4449
-31.1682
13.8822
-38.5259
-6.20423
11.6877
-5.48669
-5.48701
0.732738
-39.0645
-19.0685
-43.169
-2.82258
-2.82464
-11.4007
-13.0409
-35.6746
-16.3189
28.7136
-30.4875
1.58067
-17.6797
-18.5617
-32.9705
-0.333479
1.20476
-37.7384
-38.2468
10.879
9.44622
4.73644
-14.8943
-20.758