/*--------------------------------*- C++ -*----------------------------------*\
  =========                 |
  \\      /  F ield         | OpenFOAM: The Open Source CFD Toolbox
   \\    /   O peration     | Website:  https://openfoam.org
    \\  /    A nd           | Version:  7
     \\/     M anipulation  |
\*---------------------------------------------------------------------------*/
FoamFile
{
    version     2.0;
    format      ascii;
    class       surfaceScalarField;
    location    "200";
    object      phi;
}
// * * * * * * * * * * * * * * * * * * * * * * * * * * * * * * * * * * * * * //

dimensions      [0 3 -1 0 0 0 0];

internalField   nonuniform List<scalar> 
22555
(
0.00980082
-0.0750452
0.104235
-0.0390012
0.00265734
0.00600128
-0.00303875
-0.00562147
-0.0226218
-0.00342076
0.0230044
0.00303856
0.00374991
-0.00613446
-0.00427217
0.00665592
0.073295
-0.192328
0.0397439
0.079292
0.00573469
0.00284818
-0.0059288
0.0708701
0.0390119
-0.0752097
-0.0346698
0.0810182
-0.0642257
-0.0377844
0.0209893
0.039196
-0.125139
0.0989193
-0.0129773
-0.0102849
-0.0182698
0.0210445
0.00751054
0.0542968
-0.0762568
0.0832584
-0.0612967
-0.0284114
0.00086337
-0.00726198
0.0348103
0.00462872
-0.0479485
0.0108193
0.0325
-0.160249
0.129371
0.0388694
-0.00799068
-0.0686494
-0.0261359
0.053436
0.0413274
0.00539681
-0.000851035
-0.00753221
0.00298623
0.0697587
-0.0553787
-0.0344109
0.0200302
-0.0845013
0.0586757
0.0541992
-0.0283729
-0.027086
0.0202788
0.0680743
-0.0612678
-0.0312859
-0.0720622
0.0330029
0.0703452
0.00286995
-0.00306985
0.00357001
-0.00336827
-0.123288
0.146415
0.126883
-0.150015
-0.0075573
0.00742783
0.0235484
-0.0234188
-0.00130955
0.000482479
-0.00068739
0.00151658
-0.0472723
-0.0857901
0.0160581
0.117005
0.0373072
0.0806545
-0.0345115
-0.0834441
0.00187819
-0.00241878
-0.00110307
0.00164293
-0.0777387
0.0167953
0.0134201
0.0475239
-0.0638928
0.0627076
0.0890238
-0.0878387
-0.0506315
-0.0829576
0.0606584
0.0729307
-0.0678118
0.0594196
-0.00383753
0.0122293
0.11546
-0.0972302
0.0847573
-0.102987
-0.102777
-0.106436
0.114064
0.0951448
0.00215436
0.0838359
-0.0804202
-0.00557003
0.00520225
-0.00464042
-0.0054863
0.00492447
0.179439
-0.0415862
-0.147973
0.0101204
0.109318
-0.138646
-0.0732748
0.102603
0.0478162
-0.0176572
-0.136178
0.106021
0.0873236
-0.0527994
-0.111148
0.0766066
-0.044411
0.0573336
0.0209606
-0.0338832
-0.0413134
-0.0497694
0.0578693
0.0332152
0.116064
-0.11282
-0.0054512
0.0022075
-0.100387
0.13944
-0.0391912
0.000136999
-0.00636928
-0.0190836
0.0174719
0.00798101
0.070012
-0.059656
0.0479927
-0.0583489
-0.0590245
-0.0557664
0.0831246
0.0316641
0.0184215
-0.102316
0.0585626
0.0253325
0.0076795
-0.0250426
0.0291165
-0.011762
-0.0070072
0.00792681
-0.00114834
0.000228971
0.0428591
0.187485
-0.128389
-0.101952
-0.00403421
-0.0111002
0.00889554
0.0062386
0.0854124
0.0393143
-0.0727822
-0.0519426
-0.00647382
0.00684194
0.017402
-0.0177701
-0.0456088
0.00253716
0.0443152
-0.00124501
0.0298591
-0.0618608
0.0535555
-0.0215539
0.0594641
0.0534271
-0.0585858
-0.0543045
-0.0129858
0.0142552
0.0203917
-0.0216611
-0.00115585
0.00444042
-0.00548437
0.0021979
0.173208
-0.102902
-0.0274485
0.0261898
-0.0119014
0.00866083
-0.0229489
-0.0120882
0.0460732
-0.029191
-0.00479359
0.0309001
0.0336439
-0.0395174
-0.0250308
0.16943
-0.0165245
-0.0184657
-0.134442
-0.000811211
-0.00148413
0.00201939
0.000279446
0.0584358
0.0988156
-0.0989553
-0.0582995
-0.158704
0.100887
-0.00929124
0.0671078
-0.0278265
0.0937642
-0.0522075
-0.0137293
-0.00215854
-0.00565266
0.00289096
0.004917
0.00109577
-0.00491398
-0.0227763
0.0265947
0.00361078
0.000927553
-0.00319601
-0.0013405
0.0643787
0.0933229
-0.0448869
-0.112816
0.133878
-0.0519599
-0.0813623
-0.000554713
0.0724143
-0.113343
0.102916
-0.0619885
0.0363046
-0.0344507
0.102285
-0.104141
0.0261124
0.0482315
-0.012302
-0.0620413
-0.0536022
0.14461
-0.119271
0.0282628
-0.0095304
-0.000830702
0.00216951
0.00819192
-0.0674383
0.0106584
0.0568779
-9.74837e-05
0.0412909
0.146726
-0.123374
-0.0646434
-0.0345802
0.0192146
-0.00495765
0.0203238
0.00931843
0.0116216
-0.00543304
-0.0155144
-0.00251323
0.0138472
-0.0131211
0.00178743
-0.00471738
0.00527409
-0.000556451
0.0185073
-0.0218683
-0.0255127
0.0288737
-0.0258172
0.0171583
-0.0256105
0.0342691
-0.0313857
0.0108844
-0.000455988
0.0209575
0.133507
-0.141937
-0.00924271
0.146961
4.17494e-05
-0.0904355
-0.0565681
0.0229348
0.0346999
-0.0193446
-0.03829
-0.0221713
-0.0405987
0.034799
0.0279722
0.0998368
-0.0580844
0.10054
-0.142294
-0.0379049
0.0419601
-0.0440297
0.0399743
-0.00302753
0.0040995
-0.00425927
0.00318808
-0.021985
-0.0263153
0.0336018
0.0146985
-0.117331
0.000207235
0.0637525
0.0533699
-0.0201999
-0.0545164
0.092403
-0.0176829
0.0511557
0.0613237
-0.0603618
-0.0521181
0.017386
-0.0155743
0.0301742
-0.0319926
-0.00135143
0.0024239
0.00278891
-0.00385519
0.0557504
-0.107032
-0.0736361
0.124918
-0.118803
0.0391131
0.0944307
-0.0147407
0.0268191
0.0275071
-0.0262021
-0.0281245
-0.00689487
-0.0227842
-0.0726773
0.102357
-0.145869
0.00465211
-0.0162137
0.157433
0.0413418
-0.0471197
-0.0687074
0.0744857
-0.00681501
0.000624112
-0.000152723
0.00634356
0.0022383
-0.00285778
0.0032458
-0.00262544
-0.0850517
-0.0432197
0.0851026
0.0431688
0.122374
-0.103758
-0.00769228
-0.0109259
-0.0532664
0.00139005
-0.00377966
0.055656
-0.00489135
-0.0693959
0.000117578
0.07417
0.0084219
-0.0573131
0.00523425
0.0436566
0.0283975
-0.0354686
-0.00606869
0.0131399
0.0876571
0.0490685
-0.0487093
-0.088016
0.00209121
-0.00108527
0.00155842
-0.0025743
-0.0086925
0.0115448
-0.100591
0.0977387
-0.0487463
-0.00726682
0.00601771
0.049994
0.102169
-0.0502015
-0.10466
0.0526915
0.0487524
-0.0867015
-0.1223
-0.00144733
-0.0123721
0.013405
0.000411084
0.00377375
-0.00249054
-0.00299017
0.00170375
-0.0602253
0.0322154
0.0561501
-0.0281357
-0.0425978
-0.0115981
0.00724442
0.0469538
0.083476
-0.105364
-0.00566301
0.0275502
0.0236307
-0.0350362
0.00852973
0.00287555
0.0281452
0.0153734
-0.108815
0.0652963
0.11902
0.0283205
-0.0987848
-0.0485579
0.0410086
-0.058964
-0.0371203
0.0550764
0.0215599
-0.048837
0.0461695
-0.0188919
-0.0350757
0.00215797
-0.00419184
0.0371105
0.058205
0.0686288
-0.0605004
-0.0663374
0.0378424
0.0359289
-0.0523598
-0.0214116
0.00214967
0.000926337
-0.00252542
-0.000551752
0.0597412
-0.0407867
-0.00574727
-0.0132078
0.0702576
-0.0524025
-0.00298564
-0.014872
0.115765
-0.108396
0.0565008
-0.0638721
-0.066023
-0.0472853
0.037727
0.0755815
-0.00300801
-0.00180659
-0.00202071
0.00683447
-0.00197068
0.00576399
0.00545346
-0.00924688
0.0281364
-0.0220703
-0.0911176
-0.0379057
0.0105506
-0.0184934
0.0458349
-0.00424407
0.0777802
-0.127138
0.00673109
0.00257801
-0.00643728
0.00558061
0.0257088
-0.0343678
0.00307795
0.0210495
0.148129
-0.117247
-0.05193
0.0302408
-0.0736572
0.0649014
-0.0214878
0.000889798
-0.00682401
0.00744664
-0.0015153
-0.0221076
0.0479086
-0.058138
0.0323372
-0.0259223
-0.0877301
0.0866335
0.0270189
0.0441089
-0.0129552
0.00169924
-0.0328532
0.0884644
-0.0883028
0.0497182
-0.0498802
-0.0360383
0.00279099
0.0219138
0.0113336
0.0871385
0.012142
-0.0297365
-0.0695443
-0.000698294
0.00735787
-0.00585596
-0.000802005
0.0480294
-0.0700012
-0.0390522
0.0610235
-0.129968
-0.0256581
-0.00499315
0.160621
0.0474514
-0.0978373
0.104341
-0.0539562
0.0353734
-0.0400118
-0.115612
0.120252
0.0080095
-0.0126578
0.0275725
-0.0229364
-0.085133
0.0635545
-0.0470322
0.0686113
-0.121908
0.0994207
0.0278756
-0.00538776
0.00270338
-0.138732
-0.00983908
-0.00297856
0.00673916
0.0427879
-0.046547
0.0257826
0.14277
-0.0530928
-0.00140307
0.00168018
0.000745568
-0.00102175
0.0524904
-0.0406917
0.0456379
-0.0574389
-0.0325707
0.0167412
-0.0519963
0.0678266
0.00753291
-0.00774956
0.000327715
-0.000108131
0.126945
0.0673334
0.00931204
-0.20359
-0.151807
0.0115985
0.132543
0.00766639
0.00314369
-0.00038411
-0.00088168
-0.0389141
-0.14008
0.111098
0.0678879
-0.00923279
0.0145
0.0196794
-0.0249436
0.00233069
0.0493971
-0.0571249
0.00539628
-0.0283545
0.0705613
-0.109782
0.0675741
-0.00232736
0.0380977
-0.0122995
-0.0234714
0.0258104
-0.0341959
0.0434508
-0.0350646
-0.000193478
-0.00104139
0.00336194
-0.00213272
-0.0053749
0.00312056
0.0321077
-0.0298521
-0.0850473
-0.0391328
0.00847281
0.115707
0.0279939
-0.015599
0.00611246
-0.0310661
0.0700846
-0.0697081
0.0306893
0.0388243
-0.0172475
-0.0265046
0.00492774
-0.018837
-0.0406265
0.070237
-0.0107754
0.000476939
0.00183345
-0.00142327
-0.000883803
-0.00234221
0.000438948
0.0437667
-0.0418649
-0.00882534
0.0312354
-0.00710268
-0.0153077
-0.0032006
-0.00592284
-0.0259517
-0.0250023
-0.0290714
0.0232736
0.0308002
-0.0050495
0.00680419
-0.00846543
0.00671169
0.136605
-0.0388539
-0.151332
0.0535799
-0.131425
0.0204368
0.086569
0.0244191
0.0347038
-0.0387963
-0.0206799
0.0247722
-0.11613
0.109593
-0.012047
0.0185898
0.0935571
-0.0460531
-0.0346222
-0.0128832
0.019613
-0.0270119
-0.0866464
0.0940454
-0.00115036
-0.00519867
0.00418879
0.00278226
0.0716199
0.0138129
-0.0882148
-0.0157309
0.0393798
-0.0362114
0.0125639
-0.0378858
0.0618085
0.0196917
-0.0436125
0.0524057
0.0154298
-0.0925837
0.024748
-0.00622245
-0.0408229
-0.00622112
-0.00131971
0.0717177
-0.00632628
-0.0640719
0.02223
-0.0342015
0.0180396
-0.00606564
0.0111469
0.0863552
-0.0876088
-0.00989319
-0.096333
-0.071335
0.114673
0.0529959
-0.0499773
-0.108684
0.0587985
0.0998628
-0.00685748
0.10406
-0.0022214
-0.0949826
0.0519297
-0.0624473
0.0605567
-0.0500391
0.000166707
-0.0486361
0.028862
0.0196075
0.0138841
0.0397408
-0.0331554
-0.0204698
-0.0808968
0.0597752
-0.104038
0.12516
0.0731969
0.0704728
-0.114349
-0.0293235
-0.0579054
-0.0723239
0.0690377
0.0611917
-0.0684362
-0.0869956
0.0558732
0.0995585
0.0580478
0.00988063
-0.0278835
-0.0400413
-0.060762
0.0846403
0.060846
-0.0847244
0.0334298
0.0681388
-0.0329694
-0.0685991
0.121176
-0.0581466
-0.0898956
0.0268671
-0.00393592
0.00309014
0.00624072
-0.0297792
0.0486175
-0.0376768
-0.0402667
0.0543087
0.0337256
-0.0477676
0.000961309
-0.00537757
0.00572526
-0.00130882
0.000792603
-0.000217782
-0.000579144
-0.0576981
-0.0539577
0.0285505
-0.0317027
0.0245919
-0.0214398
0.00176304
-0.00047271
-0.00129502
0.127497
0.0028965
-0.044188
-0.0862067
-0.0362791
0.0454729
0.0591874
-0.0683813
0.0445318
-0.0450027
0.0451098
-0.0446392
0.00468191
0.0607055
-0.0522456
-0.013141
-0.0623655
0.0498515
0.042373
-0.0476047
0.0356398
0.0266557
-0.014691
0.0427314
0.073983
-0.105183
-0.0115323
-0.0317709
0.00337055
-0.00817161
0.03657
-0.00278201
0.00244305
0.00230681
-0.001966
-0.0631956
0.036371
0.0550257
-0.0282011
-0.0794609
0.0898712
0.0438654
-0.054267
0.00881571
0.00362244
0.0540164
-0.0116617
0.00470075
-0.0470551
-0.0593936
0.0781305
-0.115967
-0.0154287
0.0270619
-0.0291717
0.0175379
0.0230492
-0.0255964
-0.0188239
0.0213712
-0.103843
0.134273
0.0269527
-0.0573835
-0.0286606
-0.0197655
0.0265579
0.0359835
0.0746198
-0.0902711
-0.0203314
-0.0725134
0.0807
-0.0341092
-0.0330395
0.0566695
-0.0679404
0.0443046
-0.0420441
-0.0406861
0.0926472
-0.00991705
-0.0180927
0.0352938
0.0216235
-0.0591833
-0.0416047
0.0440846
0.056703
-0.0808744
-0.139481
0.169569
0.050784
-0.0318269
0.013031
0.0382547
-0.0194589
0.0681287
-0.10322
0.0678178
-0.032727
0.00227804
0.0455235
-0.0117166
-0.0360831
-0.0638124
0.0225656
0.0715206
-0.030274
-0.0116558
-0.0047235
0.00930091
0.00708147
0.0851776
0.0473243
-0.0708983
-0.0616042
0.00793473
0.0206433
-0.0582731
0.0296951
0.0760021
-0.074439
-0.000756175
-0.000806615
-0.0618682
0.0494121
-0.012173
0.0246303
-0.0136308
0.0798696
0.0657315
-0.131971
-0.0761738
0.00850694
0.000728294
0.0669479
-0.0141289
-0.0851892
0.0789526
0.0203659
0.00457788
-0.0206604
0.0135326
0.00254985
0.0345377
-0.0632466
0.038673
-0.0099625
0.0648678
0.0672444
-0.0656368
-0.0664747
0.000591516
0.00323808
0.00275336
-0.00657686
-0.00080514
-0.00778451
0.00858955
-0.0626221
0.0662102
-0.0243305
0.0207416
-0.00113517
-0.00112079
0.00225629
-0.0753098
0.101351
-0.0449887
0.018949
-0.0172031
0.013258
-0.0349749
0.0389196
-0.0122577
-0.112136
0.0460898
0.0783079
-0.0220094
0.113884
-0.00155669
-0.0903251
0.00117285
0.00338587
-0.000946447
-0.0719783
-0.0117431
0.0641996
0.0195218
-0.0643787
0.0953701
-0.0973716
0.0663798
0.0471206
-0.0492009
-0.0444598
0.0465394
0.0260219
-0.0511167
0.139785
-0.114683
-0.0808835
-0.0760196
-0.00215538
0.159058
-0.0262612
-0.0416814
0.0370557
0.0308867
0.0187949
0.0681935
-0.067344
-0.0196446
0.016339
0.0581442
0.00552269
-0.0800065
-0.00270959
-0.015389
-0.0224835
0.0405827
0.13585
-0.11385
0.020732
-0.000420374
-0.0021881
0.00308615
-0.000101065
0.00284238
-0.00273931
0.0873282
0.0654323
-0.148931
-0.00382876
0.0203686
-0.0991885
0.00265364
-0.0071276
0.00935794
-0.00943561
0.00720159
-0.0780984
0.0718871
-0.048522
0.0547331
0.000338885
0.000582293
0.00386101
-0.00478515
-0.114505
0.10843
-0.043901
-0.00164221
-0.000253275
0.0825296
-0.0839204
-0.049836
0.0512274
0.0120809
-0.0132169
-0.0101754
0.0113083
-0.106581
0.109478
0.0271931
0.00701738
-0.0412017
0.039144
-0.00496013
0.00157723
-0.00363662
0.00370003
-0.00164013
0.0670909
0.0800653
-0.0393362
-0.10782
0.036907
-0.0277901
-0.0442895
0.0351713
-0.00445969
0.00945134
0.000210561
0.04966
-0.0805036
-0.0486126
0.172503
-0.159051
0.00141892
-0.0148688
0.0862879
0.0560184
-0.0765753
-0.0657328
0.0133431
0.001926
-0.0112377
-0.00403136
-0.0326577
0.144757
0.0611078
0.1252
0.0158006
0.00129602
0.0692768
-0.0562331
-0.0931885
0.0801445
-0.028176
0.0218837
0.00759528
-0.00130302
-0.120346
0.0405261
0.12111
-0.0143135
-0.00331399
0.00220624
0.015429
0.00488164
-0.0412761
0.03335
0.00304337
-0.0285532
-0.127792
0.0155169
0.140828
-0.0343287
-0.000985254
-0.0327533
0.0680666
-0.00463775
0.0016493
0.000729459
0.00226151
-0.0518585
0.0505086
0.0396299
-0.038281
0.00293071
-0.0330891
-0.0220971
0.0522556
0.040086
0.0173205
-0.0488933
-0.00851137
-0.0486099
0.0172877
0.0675818
-0.0362601
0.00274068
-0.00390848
-0.00414495
0.00531157
0.113873
-0.149005
-0.0676482
0.0917758
0.0232173
-0.110783
-0.00420985
0.0685835
-0.0418014
0.0256236
0.0332245
-0.0377141
-0.0178394
0.0223274
-0.0761369
0.0130704
0.00608254
0.0569826
-0.0378343
-0.0115991
0.0252387
0.0241947
-0.0249991
0.0347639
0.0187855
-0.0906784
0.117074
-0.0433415
0.016946
0.0547116
-0.0629362
-0.00578844
0.0140099
0.0567079
-0.104557
-0.000337414
0.0239413
0.00822841
-0.0318322
0.0544792
0.0169001
-0.0546418
-0.0167317
-0.0588898
0.00893625
0.0582673
-0.00831275
-0.0448978
0.0377666
0.0332438
-0.0463397
0.0194787
0.161979
-0.135119
-0.00271975
0.00183733
-0.000314789
0.00120019
0.0545712
0.0281856
-0.0535878
-0.0291687
0.044839
-0.0363826
-0.0202484
0.0117923
-0.00159485
0.00658721
-0.00716736
0.00217388
0.0143315
-0.00423885
0.0208055
0.0197641
0.0451989
-0.0754501
0.0104869
0.0250255
-0.0282604
-0.110353
0.113589
0.00476233
0.00248756
-0.137218
-0.0219098
0.16811
-0.0880488
-0.0581529
0.0917956
-0.0841988
0.091046
-0.0986429
0.0737713
-0.0384164
-0.0695892
0.0342353
0.0141857
0.0225559
-0.0204936
-0.016248
0.119773
-0.0629946
0.0919119
-0.0106711
-0.0157933
0.00749943
0.0189651
-0.0682948
-0.0130834
0.0164411
0.0649369
0.0590699
-0.0112082
-0.040174
-0.00768762
0.026826
-0.0259739
0.0153855
-0.0162374
-0.0319798
-0.0499427
0.0283085
0.0536139
-0.0485698
0.0575171
-0.0327447
0.0238004
0.00471848
-0.00669007
-0.021636
0.0236077
0.0132053
0.0426203
0.00675148
-0.0625772
0.0264869
0.12739
-0.0589778
-0.0948983
-0.0466897
-0.0548889
0.0512651
0.0503136
0.00828023
-0.09982
0.0148872
0.0766523
-0.0438789
0.106462
0.0242939
-0.0868783
0.027412
0.0458354
-0.0302424
-0.0430056
-0.110022
0.106363
0.0507026
-0.0470426
-0.123956
-0.0446466
0.140049
0.00143414
-0.0025785
-0.000474839
0.00161912
0.0473492
-0.0360093
-0.0405053
0.0291664
-0.0142753
0.00770978
-0.00662041
0.013186
0.0224801
0.0361302
-0.0240281
-0.034582
0.0506234
0.00128263
-0.098304
0.0463976
-0.0919341
0.041884
-0.00960797
0.0596581
-0.0966116
0.00674943
0.0962745
-0.00641419
0.00547513
-0.00241548
-0.00345515
0.000394853
0.00298309
0.00706435
-0.00215348
-0.00789564
-0.0206364
-0.0371272
0.0385851
0.0191789
-0.000668433
-0.0428104
0.0306691
0.0128101
0.0206558
-0.00620355
0.00698476
-0.0214369
0.0853356
-0.0877276
-0.0388819
0.0412741
-0.038272
0.0221661
-0.026418
0.0425241
-0.0172449
-0.0178728
0.00334575
-0.0733425
0.107043
-0.0790613
0.0453622
-0.0736332
0.0405063
0.0612722
0.0925735
0.040558
-0.0803568
-0.052775
0.0323518
0.0129307
-0.109065
0.0637845
0.0354948
-0.0802613
0.0680559
-0.0232896
0.00944794
-0.0102924
0.0212297
-0.0203852
0.00391276
0.0026643
-0.00597771
-0.000601297
0.0116831
0.0537047
-0.0562718
-0.00911603
0.080643
0.0356047
-0.0626317
-0.0536165
-0.0555269
0.0724084
-0.056653
0.039773
0.00759908
-0.00954764
-0.002329
0.00427754
0.000473557
-0.00105395
-0.00119659
0.00177875
-0.0632475
0.098956
-0.056424
0.0207152
0.0621556
0.0507965
-0.0610222
0.0386132
0.0817607
-0.048226
-0.0721479
0.0803563
-0.0892815
0.084703
-0.0757791
0.137089
0.0647013
-0.0733847
-0.128409
0.0340025
-0.0223687
0.00602863
-0.01766
0.0147307
-0.00593698
-0.0276023
0.0188089
-0.0662299
0.019274
-0.0291825
0.0610853
0.011669
-0.000568612
-0.0721856
-0.121708
0.00145478
0.135658
-0.0154044
-0.0999738
0.114681
0.0534193
0.00589117
-0.00614216
-0.000353369
0.000603165
-0.0773873
-0.0343709
0.00339986
0.108361
0.0829302
-0.0617705
0.0706359
-0.0085973
0.00162677
0.00674509
0.000225414
-0.00468381
-0.00451027
0.00224907
0.00695757
-0.0972421
0.0628861
0.0664649
-0.0321096
-0.0641237
0.104357
0.0622089
-0.102443
-0.035941
0.0304128
-0.079519
0.0391684
-0.0413009
-0.0169369
0.0190663
-0.116111
-0.000683779
-0.0129185
0.129713
-0.00558139
0.0053143
0.00850407
-0.00823875
-0.00308134
0.00139494
0.00262324
-0.000936978
-0.00222918
0.00798097
-0.00862466
0.00287092
-0.0251084
0.0130738
-0.0169358
0.0289705
-0.0421501
0.0389818
-0.00280218
0.00597025
0.124888
0.0192045
-0.127045
0.113604
-0.0549396
0.0550991
-0.113762
0.00248421
-0.00488284
0.00796022
-0.00555869
0.119506
-0.014448
-0.0930758
-0.0119811
0.0801945
-0.109254
0.11467
-0.0856101
-0.0312238
0.018252
0.0145241
-0.00155168
0.029014
-0.0301905
0.0623289
-0.0611527
0.0310127
0.147039
-0.0500227
-0.128029
0.00136762
-0.00196564
0.00247128
-0.0018699
-0.0131593
0.0294939
0.114208
-0.130538
-0.0274559
0.0540036
-0.0491777
0.0226301
-0.127676
-0.0502676
0.0575976
-0.0715265
0.105838
-0.110034
0.0757237
0.0702759
0.100419
-0.0667134
-0.103982
-0.0503437
0.129151
-0.122169
0.0433639
0.00287887
-0.00284247
-0.000585528
0.000545004
-0.0245343
-0.0205266
0.0345295
0.0105185
0.020342
-0.0346728
-0.0895121
0.037609
-0.0119668
-0.0253403
-0.000298634
-0.0734731
-0.0272997
0.069487
-0.0072037
0.00988798
0.000498235
-0.00318399
0.00873433
-0.0919976
-0.0124665
0.0957316
-0.0425766
0.0539097
-0.00646082
-0.00487235
-0.0766755
0.0809278
-0.0686261
0.0643747
0.123093
-0.0254693
-0.105344
0.0077197
0.0918268
-0.0997327
0.0481508
-0.0402425
0.0479797
-0.0427514
-0.119733
0.000205155
0.00257951
0.00540137
-0.00818523
0.0016819
-0.000537277
0.0017314
0.0409513
-0.117752
0.0770749
-0.000274463
-0.0017426
0.00130759
0.00180559
0.01093
0.00614035
-0.000464049
-0.0166062
0.121302
-0.114656
-0.0323021
-0.0365773
0.0459825
-0.0338778
0.0244714
-0.0936918
0.0790702
-0.0355911
0.0502134
-0.0160877
0.0480872
-0.046432
0.0144324
-0.022729
-0.0424726
0.0839832
-0.0187825
0.0238837
-0.00614269
0.00580294
-0.0235375
0.00635962
-0.0139324
0.00134617
0.00623082
0.00579208
0.0489227
0.00299897
-0.0577146
0.0617629
-0.0678149
0.0384707
-0.0324184
0.0392582
-0.0360276
0.148168
-0.1514
-0.0502627
0.0753332
0.0880669
-0.11313
-0.0249085
0.0240768
-0.00171555
0.00254738
-0.0178511
-0.0223799
0.0224792
0.0177556
0.0624086
0.0208384
-0.0407906
-0.0424559
-0.000247691
0.0107053
-0.00931217
-0.00114192
0.0188427
0.00838822
-0.0045833
-0.0226475
-0.0606267
-0.107374
0.0743095
-0.0201328
-0.0483859
0.0122372
0.0562847
0.0137813
0.00808224
0.0651708
-0.0870379
0.0126599
0.0217791
-0.0198415
-0.0145976
0.106653
-0.105759
0.0442949
-0.0451892
0.0126031
0.0391645
-0.00086192
-0.0509054
0.0116602
0.108246
-0.104533
0.00308677
-0.0773819
0.0840915
0.00512104
0.0128944
-0.0136704
-0.00434502
-0.0327231
0.0227441
0.0211979
-0.0112192
0.0497161
-0.0326806
-0.041657
0.0246203
0.096111
0.00472492
0.0789323
-0.17977
-0.0259068
-0.12426
0.0275062
0.122662
0.0801405
-0.00657388
0.00342611
-0.0770041
-0.0449452
0.065381
-0.071866
0.0514301
0.00156665
-0.00768182
-0.000699846
-0.00142966
0.000533767
-0.00125693
0.00215483
-0.10964
-0.0288442
0.109197
0.0292874
-0.10442
0.148289
0.011881
-0.00259858
0.00530689
0.00188116
-0.00459195
0.0120117
-0.0162692
-0.0164929
0.0207483
0.0476487
-0.0800003
-0.0160189
0.0483713
-0.0317612
0.14092
-0.170803
0.0616435
-0.0918566
0.00793756
0.0917913
-0.00787268
0.0347308
-0.0392506
0.00486499
-0.00034733
0.110577
0.0168397
-0.128086
0.000671147
-0.0785372
-0.0505628
0.0831236
0.0459755
-0.112636
0.153388
-0.0532231
-0.0772926
0.0226138
0.0795142
-0.024834
-0.00315015
0.0391307
-0.00257288
-0.0334073
0.0325537
-0.0271183
-0.0254306
0.0199951
0.1382
-0.03894
0.0237197
-0.12298
-0.0611616
-0.0542068
0.0427386
0.0726298
0.0750917
-0.0983588
0.0923356
-0.0690683
0.146259
-0.0363866
0.0090202
-0.118893
-0.00516393
0.04693
0.0448119
-0.00494452
0.00208741
-0.0419555
-0.00329834
-0.00784135
0.000821667
0.0103221
0.0401304
-0.0401814
-0.0415564
0.0416071
0.0213369
0.118157
-0.10412
-0.00205153
0.00053386
0.00095383
0.000564131
-0.0317976
0.0580571
-0.1359
0.0232172
-0.0356799
0.0178895
-0.00542756
0.103791
0.113959
-0.0965069
-0.121247
0.0294865
-0.0213179
-0.0754872
0.0673188
0.0193702
-0.0620513
-0.0123719
0.0550541
-0.00935927
-0.0741246
-0.00850652
0.0919896
0.0874324
-0.058459
0.0585959
-0.0875693
-0.122244
0.133261
0.0199959
-0.0165973
0.0864581
-0.0832299
0.0133686
0.0106524
0.0508769
-0.0483239
0.0255563
-0.0259489
-0.0194183
0.0198111
0.0276591
0.0202566
-0.0254356
0.0703462
-0.0423581
-0.0624623
0.0344749
-0.0819288
0.0527003
0.0397377
-0.0105115
-0.0892857
0.102556
0.0811664
-0.0944369
-0.0205149
0.000182589
0.0167443
0.00358262
0.106274
0.0443165
-0.0428176
-0.107773
-0.0486289
0.0371177
-0.00686331
0.0183747
0.0031409
-0.0886407
0.085208
0.00029095
-0.0035366
0.000841352
-0.0033159
0.00601022
-0.101892
0.00060531
-0.000459905
0.101746
0.00627751
0.0232755
0.00417747
-0.0337314
-0.0246521
0.0875729
-0.129612
0.0666938
0.0254746
-0.0625205
-0.0241081
0.0611544
-0.0930731
0.0594866
-0.0178272
0.0514142
-0.0758664
-0.0208371
0.0447962
0.051908
-0.0892744
0.0711929
-0.0317078
0.0497891
0.135393
-0.0780825
-0.169807
0.112498
-0.0408738
0.0465561
0.059187
-0.0476238
-0.00250096
0.0702246
-0.0200996
-0.168875
0.0478446
0.125792
0.0125874
-0.0205109
-0.0281148
-0.0699418
-0.0154808
-0.00230745
0.0689117
0.155541
-0.117683
-0.106772
0.000747401
-0.00193163
0.00261633
0.0206066
-0.0163995
0.0237868
-0.0573808
0.000482769
0.0381666
0.0187313
-0.0140864
0.0442267
0.0120765
-0.0422165
0.0847066
0.077666
-0.113088
-0.0492875
-0.0347854
0.0388055
-0.0184902
0.01447
0.0386348
-0.00990066
0.0236549
-0.0523884
-0.0352336
-0.0158259
0.0329666
0.00139289
-0.0061084
-6.55918e-05
0.00477973
0.083108
-0.143813
-0.0450446
-0.0344341
0.027859
0.0516198
-0.0176244
0.0360894
-0.0883514
0.0698851
-0.00859105
0.0517375
0.0669161
-0.0645736
-0.0540792
0.108746
-0.0914588
0.0527252
0.0111385
-0.0181906
-0.00722304
0.0192051
-0.118128
-0.00317181
0.102095
0.0813033
0.0696902
-0.0584203
-0.0042265
-0.00219353
0.00615938
0.000253188
-0.102212
0.0782354
-0.033511
0.057488
-0.0772938
0.113979
-0.0613692
0.0246839
0.0341755
-0.131478
0.112491
-0.0151919
0.055404
0.0352727
-0.0182982
-0.0723808
-0.0998327
0.0151321
0.0297319
0.0549737
-0.00704946
0.00606164
-0.103779
0.104766
-0.0224168
-0.0153514
0.0178265
0.0199417
-0.00349416
0.00850678
0.0131844
-0.0181945
0.082414
0.00740159
0.020067
-0.109881
0.0132281
0.00335501
-0.00791468
-0.00867097
0.0975761
-0.0626602
0.0502081
-0.0851213
0.0391689
-0.0226363
0.0210944
-0.0376268
-0.0633544
0.0267784
-0.0407175
-0.0321434
0.0298959
0.000960366
0.00128701
0.0490636
-0.0991547
-0.0378974
0.0879884
-0.0341753
-0.0137361
0.0338114
0.0140999
-0.0507573
-0.035472
0.0111791
-0.0224926
0.00468028
-0.0143308
-0.147845
0.000187061
0.121753
-0.00109823
0.00209557
-0.0588166
0.0578197
0.00505104
0.00859945
-0.00433518
0.0639977
-0.0591692
0.079876
-0.039295
0.0194242
0.0411219
-0.0212498
-0.00198699
-0.000849913
0.00148612
-0.0434469
0.0486572
-0.0178449
0.0126345
-0.117867
0.0546417
0.0981454
-0.0349204
-0.0237838
0.0195884
0.0158501
-0.0116546
0.124399
0.0408751
-0.00917966
-0.156094
0.00266605
-0.0018613
-0.000810339
0.158983
-0.0318266
-0.0284175
-0.0987379
-0.02124
0.0182918
-0.0123876
0.0153326
0.0520674
-0.0460478
0.0475832
-0.0536019
0.016669
-0.0413027
-0.0179615
0.00408505
-0.00141355
-0.00670477
-0.00873377
0.00581708
-0.00433669
0.00725671
-0.0629271
-0.0624653
0.0741587
0.0512339
0.0408703
-0.0402392
0.0135442
0.00471197
0.13163
-0.149887
-0.0513773
0.0400103
0.0122228
-0.000857529
0.000344186
0.00559878
-0.00455613
-0.00138834
0.0692092
0.0441662
-0.0889043
-0.0244719
-0.0871103
-0.050385
0.05241
0.0850827
-0.132999
-0.00621059
0.0406185
0.0985889
0.00237859
-0.00145775
0.00316485
0.0223437
0.0247635
-0.0315036
-0.0156036
0.0802351
0.0554286
-0.0772273
0.0880877
-0.0885141
0.0877547
0.00699107
-0.0113854
-0.0161217
0.141083
-0.051023
-0.143022
0.0529634
0.0728781
-0.0904692
0.0206753
-0.00360803
0.0051058
-0.00547901
0.0039795
-0.0769138
0.110621
0.0193
-0.0530064
0.0112512
-0.0148296
-0.0950593
0.0986376
0.0547464
-0.0701167
-0.0719487
0.087319
-0.0262735
0.00980009
0.0247536
-0.0082798
0.0408236
-0.0888819
-0.0567057
0.104765
0.0290996
-0.0276802
-0.00985576
0.00843687
0.0165955
-0.0180772
-0.0425285
0.0440097
-0.040174
0.0588337
0.0597563
-0.0784183
0.00774786
-0.00389497
-0.00715851
0.00330172
0.0315251
-0.0422951
0.0277181
-0.0169463
-0.0614126
-0.0258656
0.0762831
0.0109984
0.0178786
0.0439946
-0.0423029
-0.0195702
0.0155015
0.0473937
-0.045017
0.0666046
-0.056446
-0.0458338
0.0356746
-0.0665041
0.0709857
0.0715048
-0.0759888
-0.0607448
-0.00974118
0.0653676
0.00511634
0.0192305
-0.039191
0.0696759
0.00297695
0.050475
-0.045227
-0.00822265
0.0102487
0.0165544
0.0447903
-0.0715932
-0.0293738
0.0258589
-0.0330619
-0.0731975
-0.0759965
0.0755064
0.0736876
0.064854
0.072449
-0.101473
-0.0358349
-0.0905243
0.08946
0.0730926
-0.0720299
0.0495632
-0.0580147
-0.00279143
0.0112428
-0.0633671
-0.0870855
0.0685248
-0.00535002
-0.00336342
0.00510421
0.0687834
0.0837118
-0.111969
-0.0643888
0.0487781
-0.0225643
0.0381745
0.0536008
-0.0262583
-0.0861358
0.0587939
-0.0762171
0.0167026
0.082529
-0.0230149
-0.0416741
-0.0211104
0.0431305
0.0196539
0.0138827
-0.136407
-0.0372372
0.132524
0.0389615
-0.030401
-0.0718104
0.0389239
-0.0391758
0.0673668
0.0636625
-0.0673445
-0.0636851
-0.0555586
0.0525751
0.011117
-0.0134039
0.0243394
-0.0220496
0.0044674
-0.00652712
0.0413391
-0.0392817
0.125173
-0.0182376
0.0655686
-0.0582447
0.152992
0.0414605
-0.136206
-0.0116711
-0.0103272
0.0134242
0.00857424
0.0832769
0.0962617
-0.0741839
-0.105355
0.0179296
-0.00407173
0.0011294
-0.0149872
0.126866
-0.0558207
-0.160347
0.0892999
-0.0383554
0.0228593
0.0278993
-0.0123881
0.118918
-0.0093695
0.0248808
-0.000676463
-0.0210392
-0.00739219
0.0291087
-0.0460315
0.0365474
-0.0168149
0.0262989
0.0135614
-0.00912517
-0.00562645
0.0011906
0.183993
-0.0407668
-0.15415
-0.136094
-0.0439567
0.0356376
-0.0591889
-0.0101007
0.0704459
-0.00115623
0.0381743
-0.0459622
0.00756463
0.000222683
0.0101688
0.00833066
-0.0105618
-0.00793382
-0.00485345
0.00436138
-0.0005331
0.00102387
-0.00853698
-0.0102299
0.0132229
0.00554406
0.00706423
-0.013088
0.0137334
-0.0640514
-0.113127
0.137168
-0.00209052
-0.000202521
0.0127456
-0.0104467
0.0384893
0.0324754
-0.0422955
-0.0286702
0.0135784
-0.00605291
0.0104045
-0.105755
0.119852
-0.00284589
-0.0673041
-0.00910163
0.00646408
0.0394564
-0.055305
0.0664498
-0.0505968
0.00336061
0.00582921
-0.00535468
-0.00383478
0.010064
-0.0584112
-0.10346
0.109105
-0.115069
0.0413244
-0.0353606
-0.0365589
-0.0449446
0.0475142
0.0339889
-0.0537082
0.0600534
0.0024743
-0.0515624
0.0528435
0.00499196
-0.00627291
0.0576075
0.00958649
0.00235087
-0.0695444
0.00365463
0.00178121
-0.0039765
-0.00146043
-0.0455319
0.046348
0.010303
-0.00196207
-0.0750849
0.0206801
0.0563642
-0.0322751
-0.135699
-0.000900423
0.065449
-0.0390714
0.0711999
0.046619
-0.0570436
0.106569
-0.0961445
0.0320486
-0.000283542
-0.0436482
0.0118828
0.0103034
0.0729176
-0.0711457
-0.0120725
0.0550906
-0.0516736
-0.0875632
0.0841461
0.0519462
0.096351
-0.025204
0.0704582
-0.0633959
0.0731324
0.0906743
0.0137008
0.00180494
-0.106181
0.0277022
0.0162942
-0.0247879
-0.0192087
0.103805
-0.0423624
-0.00101557
-0.0604331
0.0120159
-0.0280164
-0.137905
0.0627391
-0.0168334
0.0919993
0.0402195
-0.0695789
-0.0450261
0.0743864
0.148854
-0.0278318
-0.109423
0.00013781
0.00232035
-0.00245355
-0.00731679
0.0594842
-0.0581094
0.00594181
-0.0129354
-0.0487213
0.0215166
0.0401416
0.0581734
-0.0495512
-0.0821773
0.07355
-0.0870026
0.0494959
0.0917796
-0.0542744
0.0422388
-0.0636098
-0.104759
0.12613
0.120286
0.0288265
-0.121987
-0.0271252
0.0289281
-0.0925634
0.000387726
-0.0721672
-0.00999446
0.068017
0.0141453
-0.110951
0.0795356
0.0172863
-0.00023429
0.00504994
-0.00343064
-0.00138361
-0.00857881
0.0129648
-0.0113595
0.00697305
-0.1081
-0.0580836
0.105432
0.0607506
0.00375666
-0.00271894
-0.0127804
0.0117451
0.0248373
-0.0171519
0.0129417
-0.0206273
-0.0625957
0.0319367
-0.0214868
0.0521453
-0.0862172
0.12647
0.0433086
-0.0835617
-0.105012
0.100551
0.118336
-0.0428219
-0.0162067
0.0449427
-0.00699608
0.0395075
0.0753762
-0.107889
-0.0104738
0.060742
-0.0349716
-0.0152964
-0.0317551
-0.0285083
0.0551086
0.00515468
0.0168981
-0.0166848
-0.0237507
0.0235373
0.00727322
-0.0431442
0.0451974
-0.00932549
0.0314694
-0.0168145
-0.0444596
0.0298068
0.018993
-0.0343721
0.135666
-0.106224
-0.00880213
0.0506472
0.0775509
0.135847
-0.135882
-0.0775215
0.115995
0.00234495
-0.131376
0.0130362
-0.0258675
0.0262461
0.032175
0.0197412
0.0232487
-0.0164465
-0.026543
0.0406228
0.153477
-0.0919322
-0.0453786
0.0598884