/*--------------------------------*- C++ -*----------------------------------*\
  =========                 |
  \\      /  F ield         | OpenFOAM: The Open Source CFD Toolbox
   \\    /   O peration     | Website:  https://openfoam.org
    \\  /    A nd           | Version:  7
     \\/     M anipulation  |
\*---------------------------------------------------------------------------*/
FoamFile
{
    version     2.0;
    format      ascii;
    class       volVectorField;
    location    "200";
    object      U;
}
// * * * * * * * * * * * * * * * * * * * * * * * * * * * * * * * * * * * * * //

dimensions      [0 1 -1 0 0 0 0];

internalField   nonuniform List<vector> 
11372
(
(12.8552 2.91116 0)
(-0.645163 -2.99336 0)
(7.40975 -2.69878 1.18978e-17)
(-2.37008 -1.08852 -2.63811e-20)
(12.4862 0.584629 0)
(-0.793718 -2.89483 0)
(11.6203 1.6054 -1.63753e-18)
(13.1715 2.164 -9.4829e-18)
(11.1763 2.93557 0)
(5.92497 5.69041 0)
(11.4508 1.31135 -1.6689e-19)
(6.45493 2.3402 1.07473e-18)
(12.6746 -2.38033 -1.96017e-18)
(10.0218 1.82969 3.8682e-19)
(5.60806 1.38652 0)
(-2.36165 -0.924269 6.08649e-18)
(12.4102 1.09323 8.19296e-18)
(11.6959 2.17429 -2.02669e-18)
(9.66456 1.85169 -7.56363e-19)
(9.66889 0.927299 -6.72541e-18)
(1.33189 0.308875 -6.28657e-18)
(10.911 0.75169 1.17127e-18)
(8.35076 -8.89962 9.57807e-19)
(0.574556 0.363117 2.27536e-17)
(11.8811 0.891314 1.33618e-18)
(8.24922 2.89209 -2.15997e-19)
(-0.188809 -0.947094 -2.71741e-20)
(10.2329 2.13261 -3.79097e-19)
(9.86596 0.833219 8.77745e-18)
(9.78372 0.933552 0)
(9.58088 1.66784 -1.99039e-18)
(9.95652 0.845564 -4.83693e-20)
(12.3474 1.11349 1.76613e-18)
(10.6179 1.77293 3.82113e-19)
(3.18939 1.87132 -3.16454e-20)
(9.94533 1.35603 -5.0706e-19)
(11.0518 1.02332 7.99535e-19)
(9.79898 2.62151 5.86739e-18)
(12.0892 1.14153 -2.85332e-18)
(11.4888 3.0113 -9.17018e-18)
(12.8118 1.9468 1.23063e-17)
(9.89352 0.831896 2.49415e-18)
(10.6796 1.35924 0)
(6.02942 -0.137703 -5.91309e-18)
(10.3241 0.200229 5.70013e-18)
(12.6126 2.59271 -6.65507e-18)
(11.6389 0.0176237 -2.14647e-18)
(4.80657 1.35574 -6.49056e-18)
(-0.909223 -4.28489 -3.93734e-18)
(11.6972 0.891206 -2.75098e-19)
(6.83648 0.918298 4.16702e-18)
(11.553 1.3303 -4.0992e-18)
(6.03408 -5.11957 5.43213e-18)
(6.446 -0.379123 6.40474e-18)
(9.76269 1.61722 0)
(11.2824 1.87324 -2.00823e-18)
(5.86121 1.73032 1.51658e-17)
(-0.675195 -3.89028 -8.11702e-18)
(11.8179 0.894668 -1.74575e-20)
(7.03518 0.115169 0)
(12.3622 -4.00416 -3.11917e-18)
(5.23537 -0.464583 0)
(9.946 1.42851 7.49577e-19)
(-0.429235 0.733986 -1.98371e-17)
(10.1304 4.53648 -9.69494e-19)
(10.1092 1.53021 -2.59017e-18)
(12.191 2.31744 2.79684e-18)
(-1.53046 -0.925208 -4.56047e-18)
(7.10555 -4.93162 7.94708e-18)
(1.12239 0.393255 0)
(11.3581 0.638275 -2.48696e-19)
(11.2766 1.48743 -3.50784e-18)
(10.9326 1.11024 -6.43801e-21)
(11.7184 1.13375 1.32508e-18)
(12.3401 2.96788 3.00122e-18)
(9.92665 0.882421 8.78892e-20)
(-2.64569 -0.975726 -4.45987e-18)
(10.4426 1.97895 1.05035e-18)
(9.94959 0.795087 -6.54401e-18)
(13.5066 2.89694 0)
(-3.07522 -1.23732 -5.82103e-18)
(3.73126 -5.72693 -8.47327e-19)
(0.7372 -2.4533 -4.35014e-17)
(9.00695 -3.61032 -1.44217e-18)
(16.737 -1.15046 -6.65414e-18)
(11.1515 8.83133 6.1441e-18)
(10.1232 1.31687 0)
(10.8726 2.6854 -6.00524e-20)
(8.94557 0.628215 -3.37749e-18)
(12.9519 4.76269 -7.27572e-18)
(10.9251 1.00358 -6.43789e-19)
(10.3624 -0.797796 -9.90035e-20)
(-1.1359 -2.23748 0)
(9.68757 -2.87974 1.05511e-18)
(10.6175 0.0705989 1.51128e-18)
(7.72319 4.21195 2.38984e-18)
(12.4562 1.8434 2.15464e-17)
(5.15037 2.76562 -5.28494e-19)
(-0.973966 -0.0430212 8.83074e-18)
(10.3598 1.40516 3.29327e-18)
(10.0791 0.431543 3.15087e-18)
(8.41146 -0.333924 9.03462e-18)
(9.95044 0.565976 5.07823e-18)
(11.296 0.869487 2.15553e-19)
(9.77497 0.281036 -5.6332e-18)
(1.89953 2.30585 1.38475e-17)
(0.268779 -2.03867 -1.36638e-17)
(9.9008 0.552161 -1.36976e-17)
(10.259 1.49953 -4.41455e-19)
(9.1295 0.599068 0)
(10.2008 1.94437 -8.56059e-19)
(8.83867 0.134793 1.86425e-18)
(9.04469 -6.94774 2.69433e-19)
(9.78766 1.16549 -7.17844e-18)
(0.620942 -0.0166004 1.404e-17)
(10.1193 0.449397 -3.85835e-19)
(13.2714 0.80201 2.8789e-18)
(9.97906 1.14375 0)
(10.0694 1.86508 0)
(-2.06899 -1.29142 -9.00088e-18)
(1.14762 0.0293077 4.17017e-18)
(12.7257 1.48481 1.92914e-17)
(3.11295 2.69912 -1.28275e-18)
(10.0856 1.52417 1.49648e-18)
(7.42671 -0.48381 2.98263e-18)
(9.76368 0.860422 3.07701e-18)
(11.8325 1.36898 2.62976e-18)
(12.8538 1.00069 7.02494e-18)
(10.7339 3.03849 -1.8958e-20)
(13.0217 2.52075 -6.40827e-19)
(12.2052 2.57769 -2.02165e-17)
(11.2605 3.55789 6.44683e-19)
(-0.973976 -0.670668 -2.0613e-17)
(12.9111 -1.03578 1.24817e-18)
(12.2846 1.3773 0)
(10.9679 1.29522 3.73384e-18)
(11.5558 2.02187 -3.57808e-18)
(-0.49226 -0.533074 -8.29189e-19)
(1.75527 4.15448 -1.28661e-17)
(9.9159 0.578921 0)
(3.4105 1.34099 -3.04996e-19)
(9.93215 0.888677 0)
(2.18497 0.253176 5.92754e-18)
(8.69668 -4.98025 -1.23992e-18)
(12.4944 0.461534 2.59436e-19)
(12.9588 1.81987 -1.42138e-19)
(-1.69807 -1.19065 4.92475e-18)
(9.46702 1.92624 0)
(9.61906 1.53092 0)
(13.4303 0.686827 5.35849e-18)
(10.7776 0.142335 1.64812e-19)
(10.7205 7.11914 1.62946e-18)
(12.1736 0.27778 5.79424e-18)
(-1.15607 -2.27817 0)
(9.95958 1.45963 -3.96973e-18)
(10.5568 0.967384 -1.10898e-18)
(11.3297 2.31148 -4.39304e-18)
(11.0528 2.06635 -6.56359e-18)
(3.73597 1.65793 0)
(9.73145 0.200318 -1.56316e-17)
(11.3626 0.801769 2.60817e-19)
(11.2911 0.889371 0)
(12.9648 2.04798 7.42544e-18)
(9.95256 0.841095 2.03696e-17)
(-0.742706 0.841404 4.58301e-18)
(12.0804 -0.991789 0)
(12.4772 2.27258 5.5475e-18)
(-2.66613 -0.746535 0)
(11.0995 0.923954 5.40402e-19)
(10.6681 1.23163 -1.06475e-19)
(0.284577 -0.84565 5.41713e-18)
(10.64 0.711952 0)
(5.96946 0.0911692 -6.62711e-18)
(12.2884 3.45884 -5.97857e-18)
(10.9735 3.97608 3.02166e-17)
(13.1856 5.08145 1.70485e-19)
(9.53818 2.79794 0)
(0.469318 -0.365902 9.91475e-20)
(13.7215 4.31639 4.06196e-18)
(10.003 0.369695 -6.06057e-18)
(9.31263 -3.55599 -2.54708e-19)
(9.55998 1.04068 1.45285e-17)
(12.4883 6.65672 -1.72233e-17)
(12.2621 2.31179 -3.6569e-18)
(0.0420073 -0.425634 0)
(12.7473 0.694832 1.35449e-18)
(6.82683 3.96995 0)
(13.0367 2.5686 2.87632e-18)
(8.35962 0.199952 0)
(-0.836206 -3.81041 -1.10641e-19)
(11.4836 0.585293 2.87526e-20)
(9.74458 1.23908 0)
(8.20596 0.574814 2.69262e-17)
(11.8362 1.50054 -3.23413e-18)
(12.6876 0.852569 7.57562e-19)
(11.9589 1.28356 9.30114e-19)
(-1.22627 -0.854899 1.34883e-17)
(9.79435 0.881567 3.74328e-19)
(12.7164 4.26207 1.73582e-18)
(11.676 2.6907 -1.42696e-18)
(9.76647 1.00301 -9.83801e-18)
(9.18516 0.613299 -1.71081e-18)
(9.48339 0.698941 0)
(2.82159 2.79088 6.97349e-18)
(10.2232 1.65942 0)
(11.2502 1.50544 2.62888e-18)
(10.5159 0.49681 -1.86952e-19)
(11.6121 1.68196 -1.42741e-18)
(11.424 1.87549 1.68079e-19)
(7.99957 1.75672 1.25546e-18)
(14.2173 0.0846593 -2.31544e-19)
(11.2703 1.87576 -3.05491e-18)
(9.50308 2.38033 0)
(9.71219 0.811582 -5.52066e-18)
(9.8672 0.565136 0)
(7.11823 -0.192114 1.09797e-17)
(9.86585 0.804955 -1.82584e-17)
(9.61399 0.9752 9.75189e-21)
(11.4163 1.23897 1.06905e-17)
(-2.27842 -1.04178 1.1635e-17)
(12.9707 2.38967 -3.79416e-18)
(9.65726 1.01848 -7.64054e-18)
(1.67011 -2.46212 1.91044e-17)
(-0.172323 -0.402145 -8.4422e-17)
(9.88901 0.579675 5.2317e-18)
(9.85398 5.64028 4.94697e-19)
(-0.756255 -0.360878 2.60227e-19)
(10.8283 0.846179 -3.40153e-18)
(9.90884 0.462551 0)
(10.5147 -0.654238 -2.65457e-18)
(9.63841 2.43515 -3.44993e-18)
(9.79943 1.63233 2.69374e-18)
(12.2997 2.42473 -3.26318e-18)
(10.5256 1.47408 3.63856e-19)
(9.11324 1.29922 6.85859e-19)
(-1.45615 -0.575252 5.55877e-18)
(12.7484 2.74913 0)
(8.10484 3.6747 8.27776e-19)
(6.93271 -0.284662 -3.21184e-18)
(11.8132 -2.16147 3.62792e-18)
(9.95777 0.854312 -1.43583e-17)
(13.511 3.30857 3.03907e-18)
(9.78983 -2.59808 3.98464e-18)
(10.0932 1.33175 3.75908e-18)
(9.02677 -3.3092 1.24079e-18)
(10.3025 2.00251 0)
(9.56339 1.50301 9.50125e-18)
(12.1698 3.78035 6.16341e-19)
(9.86872 1.90185 -7.51171e-18)
(12.6885 6.33644 -9.24275e-18)
(10.8628 -0.877956 -4.80392e-19)
(10.9156 0.632858 -2.3042e-19)
(16.6401 6.93343 1.53276e-18)
(9.71625 2.51044 -2.69788e-18)
(13.4623 2.64315 -7.5326e-18)
(9.50431 0.115963 3.82076e-18)
(3.31229 -0.263722 -4.01485e-18)
(9.99133 1.18517 -1.49663e-18)
(8.89799 2.20944 4.76509e-20)
(10.2732 -0.0555435 1.11154e-18)
(12.6904 2.13729 -1.03942e-18)
(9.91076 0.872867 -2.21771e-18)
(10.0023 4.47691 1.36565e-17)
(9.80041 0.573305 3.11775e-18)
(6.63008 -2.95496 -5.70649e-18)
(11.8268 2.28012 3.21754e-18)
(9.85174 3.93279 0)
(0.874659 -0.555963 -6.64426e-18)
(0.846697 4.04983 2.60101e-17)
(12.2453 0.16419 0)
(0.376809 0.809568 -2.15332e-17)
(11.7813 3.1305 9.32358e-18)
(9.55991 4.13605 -2.48021e-19)
(12.1894 1.42301 0)
(12.0743 1.17611 0)
(1.11484 0.385263 0)
(10.2028 -0.0486784 -1.0028e-18)
(10.2213 1.28678 5.26062e-19)
(10.3997 -0.586142 3.04081e-18)
(8.18356 2.40171 -4.10953e-19)
(12.1704 0.995886 -5.64962e-19)
(10.1962 -0.922323 0)
(9.65378 0.0755558 0)
(10.3354 -0.267123 -1.32461e-18)
(9.45036 0.992723 -2.88125e-19)
(10.4917 1.44652 -8.23995e-20)
(-0.350844 -0.53382 7.7089e-18)
(-0.923226 1.23417 -9.3028e-17)
(10.1665 1.49539 3.15465e-18)
(10.2967 4.38459 6.51746e-18)
(2.35482 -0.346098 0)
(9.84158 0.995797 4.94535e-18)
(-0.857376 -1.01191 1.54556e-17)
(10.4577 0.535396 -4.64218e-19)
(0.826804 0.376814 -3.52915e-18)
(10.0119 1.65512 -9.38939e-18)
(3.90411 0.0760414 0)
(9.9047 1.18601 6.60636e-18)
(11.2402 -2.19743 -1.05026e-18)
(-1.5548 -1.13469 -5.00104e-18)
(9.94427 0.886513 8.03335e-18)
(13.2113 0.169791 0)
(2.83674 1.94703 -1.7335e-17)
(8.62743 3.71426 7.75252e-18)
(11.3973 0.860806 -1.58939e-19)
(11.7772 2.3837 -6.30957e-18)
(3.81136 -4.99585 1.40335e-17)
(11.8056 0.866512 0)
(9.94708 0.849428 3.57509e-18)
(11.4924 1.20845 0)
(7.56534 -6.36027 -2.87431e-19)
(9.95296 0.78869 2.02199e-17)
(-2.48613 -1.20513 -8.76118e-18)
(15.8073 -0.190208 2.70575e-18)
(10.228 0.515633 -2.32012e-18)
(9.9101 2.18282 -6.86246e-19)
(0.637134 -0.186237 -1.67156e-17)
(12.411 -0.927684 4.57599e-18)
(12.0103 2.14717 -9.67179e-20)
(13.143 2.25216 -6.0191e-18)
(10.004 3.27507 -2.16712e-19)
(-2.02164 -1.27518 0)
(12.3386 1.10124 8.20545e-19)
(9.70697 0.702566 0)
(9.74299 1.02515 1.52575e-18)
(8.91211 1.12395 -9.09218e-20)
(13.0625 0.991888 0)
(8.6856 -1.93616 0)
(10.137 5.50638 1.5714e-18)
(11.6339 1.48985 -3.25367e-19)
(7.01742 4.16946 -1.68166e-17)
(9.79334 0.911121 6.38201e-18)
(6.58753 5.24556 0)
(12.7701 1.6542 -4.81093e-18)
(8.42061 0.270482 -3.99373e-20)
(12.2691 2.89122 -4.50375e-18)
(11.0276 0.726763 2.16399e-19)
(-0.570847 0.783607 0)
(10.1467 2.32878 5.36261e-18)
(11.2803 2.6934 1.30049e-19)
(-2.3133 -0.388941 0)
(3.79916 -0.600544 0)
(10.5242 -0.401257 0)
(11.018 1.86319 9.29473e-18)
(10.5361 0.920894 1.21871e-20)
(12.0441 1.09331 -1.49386e-18)
(10.6815 1.5934 7.26448e-18)
(11.3549 1.60307 0)
(7.28431 0.613951 3.70025e-18)
(9.95793 0.87046 7.35491e-19)
(3.29572 6.97033 -2.32223e-18)
(12.1292 2.20461 2.64914e-19)
(8.59698 0.698028 1.37713e-18)
(8.07755 -1.42972 5.63185e-18)
(9.81121 -0.0399228 7.20733e-18)
(12.9396 1.8116 4.84453e-18)
(6.01646 1.00798 2.19245e-17)
(8.8099 0.45803 -3.45524e-18)
(9.79035 3.14416 -4.84877e-18)
(9.78562 1.07557 0)
(10.507 1.45374 0)
(12.0021 1.53214 3.69326e-18)
(9.69714 -0.497236 1.7094e-19)
(8.63512 2.38431 1.28369e-19)
(10.1895 0.566262 -2.27199e-18)
(-0.964808 0.551334 3.01054e-17)
(12.1328 2.52562 -4.70683e-18)
(5.01132 2.19432 0)
(8.04725 2.0676 1.34219e-17)
(9.68913 0.59263 3.90455e-18)
(9.76431 0.660058 0)
(11.9538 1.13569 -6.17019e-20)
(-1.77912 -1.15013 1.75776e-17)
(-2.10379 -1.15683 4.63557e-18)
(9.92366 3.95167 7.34288e-19)
(7.78226 2.00088 -2.71816e-18)
(6.2501 0.115601 -5.43214e-18)
(9.87269 0.631366 -9.84611e-18)
(12.2299 1.57987 -4.70757e-21)
(8.62417 1.1691 0)
(10.4859 1.61885 -1.50435e-18)
(9.75589 0.88654 -1.59233e-20)
(11.4853 -0.000539528 0)
(11.9258 2.11554 0)
(10.1769 -0.274686 0)
(6.17457 6.97664 -1.54403e-18)
(-0.553418 -1.6702 6.15528e-18)
(10.195 2.76797 2.09279e-19)
(12.8787 1.23892 1.93168e-19)
(11.1149 1.76008 2.93308e-18)
(4.32845 0.0872977 2.75438e-18)
(0.545825 0.336798 6.62118e-18)
(10.0046 1.43065 -3.46265e-18)
(11.398 1.82136 3.74875e-18)
(10.0408 1.2152 1.90723e-18)
(11.4457 2.08049 4.26539e-19)
(10.9713 0.65343 0)
(15.3701 3.8308 0)
(10.0492 -5.87223 0)
(13.0541 0.887387 4.14111e-18)
(9.15065 0.349051 6.8703e-19)
(10.9456 1.15609 -1.16099e-18)
(9.72449 2.43592 -1.78188e-18)
(-1.83945 -1.33133 -5.80924e-18)
(11.7976 1.04745 -6.93098e-20)
(10.6178 1.58403 -2.92786e-18)
(3.25215 -0.102139 -7.95104e-18)
(-0.706875 -0.995829 2.98433e-18)
(11.6679 1.4697 1.28037e-18)
(11.5148 1.04216 1.11703e-18)
(10.0027 0.413426 0)
(3.69419 2.65559 -1.30243e-18)
(11.268 0.944654 1.0287e-19)
(-1.04794 -3.96238 -9.87196e-18)
(-1.02359 0.203323 1.3649e-17)
(-0.915377 -3.47254 4.78161e-18)
(8.30137 0.844407 1.96345e-17)
(9.69281 -1.94147 0)
(10.1344 1.21044 0)
(11.1551 1.13262 -7.38668e-19)
(0.787539 0.386426 3.50144e-18)
(10.6924 1.03973 2.51683e-19)
(9.96931 0.716149 2.89637e-18)
(8.28906 10.2172 1.44896e-18)
(9.69135 1.70556 -4.66423e-18)
(9.92827 0.907113 -1.36098e-17)
(-0.742855 0.880515 6.83649e-18)
(9.92552 2.8914 -7.02841e-18)
(8.85093 1.40117 -2.93918e-18)
(9.95527 0.80426 1.32115e-17)
(10.2322 1.91154 0)
(10.6441 0.59997 3.1974e-18)
(10.4773 0.804254 -4.20269e-19)
(-0.82333 -1.59726 1.07602e-16)
(4.87732 1.84087 -5.24362e-18)
(10.0737 1.31561 0)
(4.5656 2.79801 -7.67963e-18)
(9.68613 0.952938 6.67263e-18)
(3.71594 0.0587871 4.55894e-18)
(11.8138 1.21238 1.23621e-18)
(11.49 4.85426 -1.67105e-18)
(10.8049 1.71447 1.68211e-18)
(9.9555 0.656268 3.99753e-18)
(11.5578 1.26094 0)
(10.4335 0.514431 -9.55922e-19)
(-2.52372 -0.64308 -5.59584e-18)
(-0.714918 -1.21581 -3.247e-17)
(9.86871 0.775693 3.66806e-18)
(-0.627965 0.789838 6.34282e-18)
(5.43492 0.442137 -8.65809e-18)
(10.4641 0.977345 -8.91503e-19)
(13.4521 -1.66878 2.59481e-19)
(11.6366 1.1985 -3.21307e-18)
(8.58664 1.67835 3.68369e-18)
(12.7519 0.383743 0)
(6.17649 -0.125393 -3.13973e-18)
(1.15031 -0.65714 -1.05359e-18)
(13.2708 0.622492 9.19798e-18)
(9.87025 0.26496 0)
(11.7383 0.607667 2.45042e-20)
(7.15504 2.39515 1.00186e-18)
(6.72286 1.44792 9.77812e-18)
(7.86489 0.169927 1.25004e-17)
(11.5063 -2.09714 4.41396e-18)
(2.373 -0.405566 -2.2076e-19)
(5.52804 6.16908 0)
(11.5891 1.22276 -2.71282e-18)
(12.3692 1.1654 1.20036e-18)
(8.6062 4.51315 9.20593e-18)
(8.71606 -3.05118 0)
(10.8156 2.36248 -6.11414e-18)
(8.00386 1.50833 -1.59399e-19)
(9.75824 0.827164 -2.77375e-18)
(12.8182 2.9751 0)
(4.51342 1.59099 0)
(7.72233 4.19626 5.1689e-18)
(12.6323 -1.53417 3.3333e-18)
(11.0066 0.679774 3.93953e-20)
(10.6846 1.29358 -4.57741e-20)
(11.6442 3.52494 -1.04911e-17)
(9.70274 0.859554 1.81628e-17)
(2.15267 1.9016 0)
(-0.932124 0.49976 4.3719e-17)
(10.1748 0.489604 0)
(10.411 1.4392 -2.294e-18)
(-1.218 -2.75314 -1.27584e-17)
(2.1738 1.39772 -4.71279e-19)
(12.41 1.51804 3.35553e-18)
(11.4071 0.74918 0)
(10.1889 1.42722 0)
(10.4582 0.613246 -1.53544e-18)
(9.75972 1.24905 3.9841e-19)
(10.0985 1.70573 5.38783e-18)
(10.3794 0.850262 0)
(11.8524 1.73932 -2.43179e-18)
(8.89697 -1.74657 -2.13188e-18)
(8.3172 -0.624462 1.47015e-19)
(10.2022 1.65413 4.86924e-20)
(9.74756 0.948908 1.47338e-18)
(9.91927 0.760346 7.61172e-18)
(9.91887 0.966158 -2.11065e-17)
(13.4312 0.730406 -1.19317e-18)
(11.7245 6.74864 8.59257e-18)
(1.86192 -0.0717349 -4.08987e-18)
(9.14624 1.21381 1.00025e-17)
(10.9875 2.01887 0)
(0.776348 -0.0795618 0)
(10.1472 0.506942 -1.77904e-18)
(14.0386 0.405342 -6.72833e-18)
(12.3127 0.816891 1.29965e-19)
(12.8926 2.05102 2.8153e-18)
(8.27157 0.0516009 0)
(12.3994 -0.0728721 5.79127e-19)
(9.92938 0.605587 -1.56901e-17)
(9.9372 0.910449 1.52465e-17)
(10.0391 0.335191 0)
(8.75945 0.528944 -6.9197e-18)
(8.51463 4.31432 -5.09329e-20)
(8.10868 2.22415 0)
(11.9617 -0.389141 0)
(12.4536 2.6464 7.46572e-18)
(10.153 0.628594 1.25872e-18)
(1.02295 1.66611 -8.47824e-19)
(10.6597 2.27137 -5.2867e-18)
(8.75595 2.14179 6.85843e-18)
(10.4352 -0.03594 -2.43941e-19)
(0.136959 -2.18674 0)
(10.4877 1.52029 -8.64435e-20)
(11.9091 0.715687 -1.61241e-18)
(11.7261 1.45228 0)
(10.3919 2.29491 4.80511e-19)
(10.7825 1.41171 2.22159e-18)
(10.3649 2.07695 1.02638e-18)
(12.238 1.4272 4.11104e-18)
(10.9563 0.901616 3.34312e-18)
(9.62656 4.01332 0)
(10.6137 -1.59536 2.3333e-19)
(10.6344 0.896559 -2.18818e-18)
(10.2502 7.09478 -1.39203e-18)
(9.64417 1.47238 -3.31856e-18)
(11.7828 0.749029 6.67629e-20)
(-0.865963 0.581236 -9.08529e-18)
(9.42557 -3.79058 -1.07646e-18)
(8.97281 1.99767 9.81758e-18)
(8.94418 3.70254 0)
(11.6415 1.88059 -9.25333e-18)
(9.44661 -1.4482 -5.5656e-18)
(11.2863 -1.48864 4.4041e-19)
(12.3986 6.11483 4.98373e-18)
(0.161352 -2.18429 -6.86803e-18)
(10.4902 0.468822 3.56463e-19)
(11.0511 -1.52302 0)
(12.9672 0.797228 -6.31679e-18)
(9.87723 0.821137 3.16659e-19)
(10.7533 -0.287122 8.22606e-19)
(10.3568 0.217979 -1.19799e-19)
(5.34098 2.10871 0)
(9.86469 1.06894 2.36552e-18)
(11.5069 0.0889521 0)
(0.969668 0.250287 -7.98146e-19)
(9.94939 0.875378 -8.87373e-18)
(10.2554 1.58764 1.86391e-18)
(10.5603 0.985326 2.26583e-20)
(12.9593 -0.137285 6.98413e-18)
(7.95379 3.18915 1.93309e-19)
(11.5056 1.71156 2.70189e-18)
(6.14913 3.78149 -2.14776e-18)
(3.14798 0.107131 4.50168e-18)
(12.271 1.48026 -7.82813e-19)
(0.477796 1.36579 2.08964e-18)
(10.4283 1.36586 -6.16892e-19)
(10.2593 4.5305 3.77871e-19)
(10.2218 1.58777 1.32614e-19)
(11.1902 11.2241 -2.79408e-18)
(9.98448 0.300758 -3.74971e-18)
(8.44424 3.10553 8.22688e-18)
(12.9745 2.81235 5.80997e-18)
(10.1179 11.3943 6.80857e-18)
(10.7487 1.32288 2.24827e-19)
(10.0298 1.98195 -6.73692e-19)
(-3.01058 -1.16162 9.82662e-18)
(11.6299 1.9835 4.99005e-18)
(13.1584 2.33009 3.66288e-18)
(-0.611229 -0.0598141 1.43092e-17)
(11.9243 -2.57412 -2.2781e-18)
(10.7379 0.2801 -5.51226e-20)
(5.6062 9.01939 3.54264e-19)
(10.6124 1.72137 3.34934e-18)
(-1.11233 -0.74168 -1.2398e-17)
(11.1515 0.66738 1.91138e-19)
(2.93199 1.13187 -6.65597e-19)
(11.3271 2.04337 2.76098e-18)
(3.706 3.05974 -1.30436e-18)
(3.63735 0.514304 0)
(-1.64802 -0.350446 8.42605e-19)
(11.8429 -0.537722 4.51649e-18)
(12.2475 -0.981602 -8.971e-18)
(12.014 1.10845 0)
(13.2352 1.55167 0)
(1.43221 -1.15459 -1.65685e-17)
(12.4765 1.19391 4.94279e-18)
(12.1602 2.1439 0)
(9.94814 1.1048 -5.2633e-18)
(1.74707 0.674427 0)
(8.57878 4.82159 0)
(10.2272 4.40439 -3.72777e-19)
(10.1508 1.51249 8.80078e-19)
(1.46425 2.11057 2.67468e-18)
(10.1419 0.737005 2.44156e-19)
(12.2655 2.92031 1.07324e-17)
(-0.862055 -2.86223 1.29557e-17)
(10.6161 1.20602 -2.47405e-20)
(9.81636 0.7167 -6.37599e-18)
(9.93753 1.19907 3.46229e-18)
(10.3716 -6.80218 1.45433e-18)
(11.9629 1.03683 2.80492e-18)
(11.0534 -6.99012 3.36947e-18)
(10.8371 -2.1372 1.74902e-19)
(12.5183 1.68433 5.28541e-18)
(-2.15743 -0.968556 5.98381e-20)
(11.006 1.15969 1.04014e-17)
(12.6248 1.5474 -3.30266e-18)
(8.34429 0.860438 8.5262e-18)
(8.32555 0.976117 1.00264e-17)
(9.91445 -0.399233 2.6138e-18)
(11.5501 1.16029 -8.10464e-18)
(13.0322 0.694154 -2.40703e-18)
(12.661 -1.32547 -3.27149e-18)
(9.60669 0.572653 1.52803e-18)
(10.298 2.29358 -6.77304e-19)
(13.5149 -1.91054 -3.23708e-18)
(9.87431 0.885487 0)
(12.0838 2.32647 9.58069e-18)
(10.715 0.540226 2.18483e-18)
(12.6374 -2.76881 2.57883e-19)
(12.479 2.4935 -1.952e-17)
(-0.851695 -2.98301 0)
(9.95344 0.773988 -2.29055e-17)
(10.2239 3.25608 -5.53533e-19)
(11.8171 -0.167904 2.47875e-18)
(10.0022 0.184905 0)
(10.6367 -1.99765 -1.47139e-19)
(10.7938 0.589354 -1.16798e-20)
(10.1438 0.758018 2.60453e-20)
(9.69517 0.90725 9.47566e-20)
(10.3182 1.4405 1.0759e-18)
(11.3549 1.87677 2.33816e-18)
(6.43794 0.187371 -8.72554e-18)
(11.3792 0.962731 0)
(11.3837 0.833756 -1.16436e-19)
(11.3184 0.770928 -2.79608e-19)
(4.82592 -1.94627 0)
(11.2908 1.33532 2.19657e-18)
(3.94967 -7.26783 1.19038e-17)
(10.0121 1.22466 5.65464e-19)
(4.42957 0.0435159 -3.59357e-18)
(9.92431 0.894423 -9.13162e-19)
(10.9235 1.90408 -1.05671e-18)
(9.69281 -0.216593 -2.24339e-18)
(2.58273 -5.23094 -2.04975e-17)
(10.4526 0.702162 0)
(9.76719 1.87389 0)
(9.34448 0.307121 2.26567e-18)
(15.4594 -1.16999 1.25528e-18)
(1.22501 0.864108 0)
(-0.221959 -2.56242 2.42377e-18)
(4.34633 -1.52337 9.16971e-18)
(5.11396 2.4971 -9.11841e-19)
(11.1209 2.12559 -6.367e-18)
(-1.86443 -1.20706 -3.56358e-19)
(13.268 -1.12856 3.43338e-19)
(4.80477 -7.56061 0)
(9.80378 0.738526 6.73134e-19)
(9.66433 1.41802 0)
(6.61074 2.60139 -2.28807e-19)
(-0.65372 -0.83595 -2.48922e-18)
(10.6756 1.20067 3.13787e-19)
(10.0629 0.609968 4.20556e-18)
(9.65913 -0.376948 0)
(9.21659 0.182923 -3.07628e-18)
(9.55552 2.25661 0)
(10.7677 2.64768 -1.72307e-19)
(0.239229 -1.51526 -3.76564e-18)
(8.66925 0.599907 -6.62046e-18)
(13.2663 1.67885 -2.94982e-18)
(10.6065 0.853334 6.82215e-19)
(10.4257 1.34346 3.70283e-19)
(11.8795 1.25762 4.42055e-19)
(10.0989 -1.41009 2.24167e-19)
(10.196 0.545329 2.28461e-19)
(10.0042 0.490283 -7.06714e-18)
(9.95403 0.627911 3.62976e-18)
(10.0104 0.695965 -4.02525e-18)
(12.138 0.851298 -1.87854e-18)
(9.62328 -2.16809 -3.73182e-18)
(12.0395 1.14851 -6.74226e-19)
(9.00226 -3.05475 -6.73354e-19)
(9.89809 0.903869 4.20474e-18)
(12.3669 1.98709 -1.07001e-17)
(10.5796 1.24248 -4.10145e-18)
(-0.896793 0.758165 -5.37152e-17)
(12.4827 -0.399966 9.47597e-19)
(12.3641 4.75217 -2.12235e-19)
(9.85212 1.1065 0)
(11.7293 1.19384 0)
(10.0533 0.604809 8.46232e-18)
(10.0051 0.69718 5.05833e-18)
(10.0006 1.40239 7.07827e-18)
(10.4061 2.01881 -3.16944e-18)
(9.82774 0.564195 1.07129e-17)
(-1.14589 -1.35711 -3.59547e-17)
(5.02822 0.323138 3.1017e-20)
(10.091 0.471884 -9.85707e-18)
(-2.69287 -1.17032 6.1742e-18)
(9.39948 -2.7177 0)
(9.51378 0.0136031 0)
(10.5997 1.32223 0)
(12.3259 1.0432 -1.32916e-18)
(9.06655 3.52938 0)
(11.2134 1.28569 1.3721e-18)
(13.2324 1.33549 1.73212e-18)
(11.0493 3.43941 -8.86593e-19)
(7.60055 0.155887 6.6366e-18)
(11.1081 4.25887 1.60736e-18)
(12.86 2.24627 3.13621e-18)
(10.025 0.692586 -7.65481e-19)
(10.1786 1.26977 3.65798e-19)
(11.4796 1.00809 -2.03376e-18)
(11.1236 1.62803 1.71244e-18)
(8.36506 -0.755072 -4.23088e-18)
(11.582 -8.16225 -1.57577e-19)
(10.0027 1.17966 0)
(8.52846 0.520039 1.11017e-18)
(11.0513 2.38841 4.24968e-18)
(11.3885 0.879503 1.27092e-20)
(12.1559 4.21986 -6.42014e-18)
(7.1079 3.83839 6.82023e-18)
(11.6329 3.9024 1.12738e-18)
(10.9503 1.86506 7.24829e-19)
(10.6029 1.07082 -2.27975e-18)
(9.91561 3.74917 0)
(15.0589 -1.66545 4.78217e-18)
(11.5593 2.67842 -2.16718e-18)
(11.9981 2.62585 -4.18358e-18)
(12.4768 1.68911 2.83072e-19)
(8.08877 -0.048469 -9.56781e-18)
(8.3493 1.11215 -4.53229e-18)
(-1.17309 -0.095045 1.77731e-17)
(4.74592 1.04877 4.70569e-18)
(-1.87565 -0.947643 -7.87446e-18)
(10.0568 0.589482 7.61242e-19)
(10.6527 8.81994 1.08516e-18)
(11.8054 -3.99873 7.38765e-18)
(7.6713 0.836589 -3.35321e-18)
(12.5364 2.74695 1.86128e-18)
(9.86812 0.596325 8.88734e-18)
(11.2327 1.7639 3.70946e-18)
(9.96367 1.17493 3.73663e-18)
(1.95353 -0.161686 2.23597e-18)
(8.23404 3.30277 4.21533e-19)
(0.537685 -1.46153 -7.76034e-18)
(2.03777 0.364994 3.83135e-18)
(12.8072 2.82428 0)
(9.60057 1.44495 0)
(11.3882 0.972126 6.89324e-18)
(9.19082 3.96125 -6.94077e-18)
(9.71851 0.886866 -1.19048e-17)
(10.7352 0.837341 8.36698e-19)
(12.6171 3.74312 -1.68385e-19)
(4.29887 2.22363 -4.16231e-18)
(-1.30276 0.709446 0)
(9.93192 1.08655 -6.53917e-18)
(12.5437 1.24516 2.97903e-18)
(10.7597 1.31499 -1.76228e-18)
(10.0049 -2.65826 2.37479e-18)
(9.94192 0.810562 7.87026e-18)
(4.5313 -5.82995 4.90316e-18)
(11.9252 3.00924 6.4545e-18)
(9.12749 3.83187 -1.99512e-18)
(9.9435 0.828693 2.11012e-18)
(-2.31103 -1.12565 -2.84172e-18)
(16.9108 -7.79491 0)
(9.12936 -0.00553096 3.74254e-18)
(13.9505 0.377847 4.30892e-18)
(10.9822 -1.091 -4.37951e-19)
(13.1576 2.31106 2.85552e-18)
(9.9497 0.82404 -6.26131e-20)
(11.3624 1.83628 -1.77653e-18)
(2.87924 -5.75001 8.73871e-19)
(2.79055 1.0743 -4.41932e-20)
(8.52114 -0.724925 1.29616e-17)
(11.055 1.23491 2.97861e-18)
(10.1537 0.526526 -9.91309e-20)
(10.8982 -1.25625 0)
(13.8902 -0.650585 -4.68599e-18)
(0.820016 -1.40902 0)
(11.6804 2.59672 0)
(3.04152 -1.6927 4.10778e-18)
(11.4148 0.19691 3.62193e-19)
(10.5938 3.68546 8.77571e-18)
(9.36846 0.991552 -1.31332e-17)
(10.6549 1.99258 2.95829e-19)
(11.3968 -0.577572 -1.45363e-18)
(-1.07278 -3.27299 -1.51065e-17)
(13.2508 2.29967 -8.05196e-18)
(9.98724 5.24021 -1.30343e-20)
(8.79926 3.88468 -5.39888e-18)
(9.93141 1.37566 -6.58359e-18)
(12.9795 1.84525 5.49278e-18)
(-0.731704 0.455735 1.6847e-18)
(9.87747 1.1145 -3.3693e-18)
(-0.286984 -2.21351 -1.60698e-18)
(12.4681 0.918117 7.92104e-19)
(10.2356 -3.60163 -3.06711e-20)
(9.93567 0.754226 -8.84149e-19)
(11.1881 1.00752 1.25387e-18)
(7.18194 3.41795 1.69111e-17)
(6.64271 -0.337449 -5.12801e-18)
(11.2062 0.83693 0)
(2.89654 -0.758255 9.22491e-18)
(12.1559 -3.72869 -3.95364e-18)
(-0.391225 0.334299 -7.59821e-20)
(7.85388 7.17401 8.29095e-19)
(-0.557522 -1.06145 -1.80634e-17)
(10.4096 1.51252 -9.50289e-19)
(7.08169 -0.502952 -8.0281e-18)
(-0.504079 -3.3618 -1.05586e-17)
(3.54597 1.57901 0)
(11.3472 5.18428 2.19929e-18)
(10.2357 1.7765 3.55426e-18)
(-0.0221644 0.413262 -1.15171e-17)
(9.42841 -0.621434 1.33328e-17)
(9.76769 -0.524296 2.30145e-18)
(8.25984 -0.0558042 1.91626e-17)
(10.5483 0.430297 1.22534e-18)
(-1.25907 0.303305 9.24803e-18)
(16.3399 -1.79523 4.55183e-18)
(12.857 -2.51682 2.10023e-19)
(10.3243 2.48997 -3.32301e-19)
(9.5199 2.1806 2.26947e-18)
(-0.419874 -2.26153 -9.53461e-18)
(-2.20685 -1.06185 0)
(-1.83602 -0.332183 1.63246e-17)
(8.02736 0.880833 -2.35241e-17)
(10.5686 2.04522 2.60848e-19)
(8.83534 1.28815 -1.26421e-17)
(12.1643 4.04833 0)
(7.94785 -0.412534 0)
(12.275 1.33684 -1.02368e-19)
(10.4604 -0.483137 -1.53914e-18)
(14.056 9.40435 1.47276e-17)
(12.1334 2.80666 3.586e-19)
(12.4981 1.28988 1.59939e-17)
(8.38786 5.22351 2.62294e-19)
(9.53481 -0.668331 -8.45006e-18)
(0.636301 -1.7817 9.52199e-18)
(11.8901 0.737339 0)
(5.08082 -4.00791 4.75935e-18)
(9.81094 0.0529766 -9.89716e-18)
(10.3405 0.59851 2.5945e-19)
(-0.850099 -1.36608 5.74566e-18)
(10.2826 4.08578 -1.35742e-19)
(10.3577 1.35157 2.15232e-18)
(12.4956 -3.04035 -3.42998e-18)
(13.097 4.16321 3.93839e-18)
(11.2179 1.98485 -4.1414e-18)
(9.94819 0.781286 3.47246e-18)
(6.09815 1.85837 3.08069e-17)
(10.1502 1.63155 -3.87969e-19)
(10.0242 0.472462 -6.92508e-18)
(10.2044 0.472246 9.83366e-19)
(12.1896 1.21268 -6.75115e-19)
(-1.38979 -0.79559 2.69675e-18)
(9.8557 0.78392 -4.95215e-18)
(9.93633 0.768923 1.28596e-17)
(12.6152 2.71923 0)
(8.21731 0.994202 -2.52765e-18)
(9.05594 -1.31889 8.32613e-19)
(-2.80384 -1.00836 -6.11557e-18)
(12.1114 1.55263 -2.86967e-18)
(11.6573 1.12176 -5.75257e-19)
(12.454 -2.50352 3.00328e-18)
(12.216 1.02222 -1.00404e-18)
(10.9636 0.776881 4.26038e-19)
(10.2343 1.81111 8.40739e-20)
(10.8641 2.11741 0)
(6.5528 -2.13202 -9.71098e-18)
(10.5706 0.00237812 0)
(10.1555 2.83258 2.48687e-18)
(10.7551 0.682 0)
(11.0447 0.1575 1.15598e-18)
(-1.33915 0.0748479 -1.20376e-17)
(9.21345 3.38796 -2.00826e-18)
(10.4445 1.00706 9.22496e-19)
(11.8781 -1.88443 2.03398e-18)
(6.40737 -0.236571 0)
(10.3918 0.17172 3.68988e-18)
(10.1626 -0.730388 2.6935e-19)
(10.0802 0.63027 -1.62342e-18)
(7.54855 3.25653 -3.91498e-18)
(9.9535 0.831633 6.59263e-18)
(12.244 1.04974 5.14543e-19)
(10.3516 0.53772 -1.84768e-18)
(9.95929 0.866725 2.47413e-17)
(12.9174 2.53502 -1.89956e-18)
(13.3585 1.54687 -3.6093e-18)
(9.33728 2.99136 -3.68835e-18)
(12.045 1.20651 8.30748e-19)
(10.0904 0.874891 0)
(1.08881 -1.08499 6.56015e-18)
(10.688 0.824704 -1.92129e-18)
(10.2004 0.641402 -2.60554e-19)
(9.13442 0.991209 5.42117e-18)
(8.32271 1.65608 4.80265e-18)
(11.7614 3.68509 -2.60162e-18)
(9.92882 2.45078 1.02974e-18)
(10.7881 -0.780912 -1.30613e-18)
(9.2123 2.7694 3.95881e-18)
(12.2717 1.99108 1.85379e-17)
(11.2266 -6.02767 -4.01206e-18)
(9.3572 -1.15054 0)
(11.2122 1.55031 2.19356e-20)
(10.542 0.397476 -1.19763e-18)
(-1.69714 -0.870882 2.00861e-19)
(10.0005 1.8502 -5.00983e-20)
(-2.46822 -0.979402 -2.85895e-18)
(11.5558 1.89647 -5.23853e-18)
(-0.663156 -3.07824 -6.92179e-21)
(8.70607 -1.75406 1.66505e-18)
(9.66458 2.13755 4.29805e-19)
(10.0352 0.675267 -1.80736e-18)
(10.4515 -2.0197 0)
(11.38 2.49218 2.69842e-19)
(8.06678 -3.49925 -6.93249e-19)
(9.9586 0.860204 -3.9848e-17)
(7.20316 -4.29931 7.26631e-18)
(0.327619 0.359158 -3.04786e-17)
(8.78674 2.43873 6.032e-19)
(9.95492 0.870646 3.2302e-21)
(12.6904 -3.91847 -2.10011e-18)
(9.32795 1.85129 -4.76775e-18)
(9.91267 2.04336 -2.14341e-18)
(11.7124 1.05448 2.744e-20)
(9.80144 1.40724 -5.46552e-18)
(8.95674 0.873062 1.21807e-17)
(11.679 0.862008 3.24448e-19)
(-2.34768 -1.06606 3.24981e-20)
(9.91764 1.60871 -3.79468e-19)
(11.1208 1.01226 7.75453e-20)
(9.85161 1.38894 8.20965e-18)
(11.603 1.15683 0)
(10.0513 1.67699 1.26762e-17)
(10.1757 2.62573 -4.21206e-19)
(13.1349 0.606106 -5.0772e-18)
(10.7796 -2.79557 4.431e-19)
(9.83905 2.52409 4.57085e-18)
(10.3509 0.399525 -1.08695e-17)
(11.1047 -0.627959 -1.64773e-18)
(-2.93899 -0.850867 -4.07786e-18)
(10.0441 1.28588 2.9424e-18)
(10.5177 -0.0225868 5.03511e-19)
(15.2033 -2.15647 -5.07111e-18)
(11.6083 1.10598 3.31181e-19)
(10.4234 1.10337 0)
(9.96886 0.723389 9.60312e-18)
(9.10415 -2.2671 0)
(9.96229 0.67638 -1.96325e-17)
(10.3266 2.56903 -3.20244e-19)
(11.9691 0.602901 3.31195e-19)
(4.52021 4.15955 2.24769e-18)
(12.4563 -1.5096 5.52708e-18)
(10.4242 2.45917 9.7028e-18)
(9.54933 4.58278 -1.50879e-17)
(10.3521 1.49995 -1.27016e-18)
(13.0479 -0.451366 1.25733e-17)
(10.0363 0.718857 -9.54501e-19)
(10.7832 0.572246 -1.76179e-18)
(10.8287 -1.46641 -1.56354e-20)
(10.4637 1.64709 0)
(8.32433 -3.81431 9.34647e-19)
(-1.42152 -1.85425 -4.54211e-18)
(10.78 0.616425 2.06002e-18)
(8.19798 1.90187 1.69318e-17)
(5.21688 0.610471 7.34316e-18)
(12.4283 0.930575 0)
(9.47757 0.864204 -1.80712e-18)
(-1.2109 -0.0177698 0)
(9.93998 0.646061 -2.06961e-18)
(9.84792 -0.000851901 5.78828e-18)
(8.4465 -2.78053 6.34924e-20)
(12.2095 1.35994 0)
(9.80569 0.650074 8.11387e-18)
(9.71018 1.01561 -5.1275e-18)
(11.1019 1.99975 -6.43204e-18)
(7.29956 6.13137 3.7171e-18)
(7.22543 1.43137 -5.2311e-18)
(10.6392 -1.82605 -6.63828e-19)
(7.05341 0.390635 5.97079e-18)
(10.1592 0.547426 1.71125e-18)