/*--------------------------------*- C++ -*----------------------------------*\
  =========                 |
  \\      /  F ield         | OpenFOAM: The Open Source CFD Toolbox
   \\    /   O peration     | Website:  https://openfoam.org
    \\  /    A nd           | Version:  7
     \\/     M anipulation  |
\*---------------------------------------------------------------------------*/
FoamFile
{
    version     2.0;
    format      ascii;
    class       volScalarField;
    location    "100";
    object      nuTilda;
}
// * * * * * * * * * * * * * * * * * * * * * * * * * * * * * * * * * * * * * //

dimensions      [0 2 -1 0 0 0 0];

internalField   nonuniform List<scalar> 
11372
(
0.0771362
0.0233932
0.105034
0.105299
0.111848
0.0316028
0.126495
0.0694766
0.113341
0.0743643
0.131197
0.111491
0.0947298
0.137799
0.0847892
0.096816
0.116285
0.121572
0.135375
0.137345
0.0872869
0.14246
0.0202535
0.0135295
0.129784
0.125421
0.113769
0.135004
0.138702
0.138179
0.135823
0.139923
0.104237
0.137977
0.0633963
0.143198
0.139578
0.116438
0.102753
0.117388
0.0547852
0.138942
0.140937
0.109055
0.13996
0.0916814
0.130933
0.055186
0.00773702
0.13014
0.0132763
0.128932
0.0609836
0.0784282
0.137501
0.130709
0.107392
0.0154267
0.128112
0.119304
0.0786744
0.0821144
0.143453
0.0334469
0.0856878
0.143084
0.107558
0.113987
0.0741399
0.0734144
0.137634
0.137668
0.140416
0.12454
0.0976501
0.139339
0.108294
0.136316
0.140005
0.0365796
0.0987778
0.0226331
0.00286395
0.101767
0.0142186
0.0286508
0.141618
0.119783
0.133129
0.0657712
0.140945
0.131827
0.0716013
0.111834
0.139147
0.100024
0.10807
0.0670166
0.123868
0.141089
0.140271
0.127641
0.14011
0.137208
0.13792
0.0343109
0.0289654
0.13977
0.140567
0.13412
0.136651
0.131524
0.0473778
0.139082
0.0781797
0.140429
0.0551632
0.14042
0.137429
0.120313
0.0858784
0.0599777
0.120188
0.139876
0.120772
0.13794
0.128775
0.0992662
0.124244
0.0429888
0.104328
0.113764
0.0148738
0.0992535
0.100625
0.139283
0.125257
0.115891
0.0207253
0.139893
0.0837817
0.139454
0.0818933
0.0805392
0.111802
0.0869507
0.110819
0.134017
0.136656
0.0307072
0.139074
0.0625312
0.123337
0.0544878
0.139743
0.141546
0.124104
0.131824
0.0572799
0.137335
0.13773
0.137075
0.0457568
0.139828
0.0206134
0.117025
0.0943169
0.103532
0.1396
0.141881
0.112379
0.144888
0.0744038
0.0959188
0.0944612
0.0574704
0.128204
0.109151
0.0425956
0.139925
0.102805
0.136711
0.0489619
0.0506045
0.13513
0.0286421
0.104014
0.0431137
0.129019
0.019119
0.135853
0.138532
0.128724
0.120851
0.107272
0.116327
0.114965
0.13816
0.0765855
0.117677
0.138289
0.134432
0.136239
0.104717
0.139461
0.133986
0.140853
0.129918
0.128515
0.125905
0.0322123
0.132494
0.117238
0.137565
0.139481
0.076126
0.138735
0.137033
0.136762
0.0963955
0.0550019
0.137445
0.0210008
0.00213832
0.139669
0.092976
0.00209125
0.14118
0.139608
0.132895
0.131332
0.137648
0.102534
0.140852
0.0454212
0.0572207
0.0766123
0.111921
0.0762942
0.109215
0.139982
0.0436052
0.114685
0.140655
0.105797
0.136227
0.136369
0.0833167
0.136198
0.0522886
0.129881
0.143011
0.0128336
0.117622
0.0325036
0.135602
0.109448
0.140423
0.129497
0.138087
0.072722
0.139132
0.0806149
0.138719
0.0959749
0.118131
0.0961046
0.136873
0.00339826
0.121319
0.00269103
0.102833
0.114495
0.107298
0.108683
0.0802416
0.138026
0.141217
0.133664
0.135944
0.117107
0.130853
0.136314
0.136359
0.0379464
0.140987
0.137207
0.0018154
0.143114
0.0798866
0.0956007
0.139042
0.114835
0.140906
0.0885844
0.138762
0.0768343
0.140169
0.114191
0.0578959
0.139979
0.0801538
0.0558878
0.104668
0.135505
0.116997
0.03383
0.128792
0.140019
0.130643
0.0519519
0.140036
0.107977
0.0207117
0.140634
0.134048
0.125812
0.111916
0.114666
0.0302161
0.12433
0.0926071
0.107739
0.137623
0.138146
0.0443851
0.0852139
0.119102
0.0943399
0.126457
0.08371
0.138206
0.0869674
0.0578865
0.068167
0.100915
0.141596
0.06153
0.133002
0.123327
0.112069
0.0930819
0.135059
0.136308
0.141485
0.10035
0.141851
0.13151
0.122482
0.139936
0.0180717
0.110688
0.131161
0.120102
0.13677
0.0462718
0.110301
0.132033
0.107366
0.138781
0.142381
0.124144
0.133331
0.124276
0.140607
0.0505953
0.108126
0.0944889
0.125185
0.137613
0.138225
0.115659
0.0694
0.109692
0.116511
0.123677
0.112014
0.13943
0.0347724
0.0468856
0.139944
0.137901
0.132655
0.118374
0.136259
0.0556413
0.097114
0.128776
0.0966229
0.133804
0.0860496
0.0231378
0.140011
0.129347
0.140665
0.127025
0.142416
0.0138158
0.0649737
0.0856673
0.133813
0.141182
0.119518
0.105766
0.124621
0.142059
0.0654473
0.138203
0.130989
0.131166
0.140072
0.122609
0.136996
0.0101385
0.0463358
0.0112404
0.0351695
0.121634
0.140526
0.137616
0.0918656
0.141865
0.140207
0.0164226
0.136507
0.140041
0.0184181
0.112671
0.131999
0.140042
0.137786
0.141025
0.141327
0.0045701
0.0557619
0.140596
0.0702197
0.137508
0.0190416
0.121353
0.093268
0.137424
0.140165
0.128786
0.140848
0.0993779
0.00567001
0.138884
0.0228354
0.102893
0.141453
0.0819507
0.126951
0.12967
0.106328
0.0838972
0.109821
0.0520965
0.13867
0.131753
0.146099
0.117034
0.0640354
0.113053
0.123548
0.0613808
0.128059
0.0509153
0.0813576
0.108026
0.126642
0.126565
0.137888
0.0703257
0.0886123
0.10822
0.103027
0.141997
0.141155
0.0715181
0.137523
0.0404649
0.011399
0.140602
0.141017
0.00484188
0.0895381
0.0939009
0.136308
0.140711
0.0275544
0.142919
0.13863
0.144112
0.120481
0.121652
0.125909
0.14222
0.137993
0.139745
0.140119
0.0320729
0.0591842
0.109344
0.134093
0.133645
0.0112072
0.14057
0.0215753
0.116406
0.0473849
0.064179
0.11647
0.140005
0.140042
0.139997
0.131887
0.1106
0.12497
0.123622
0.0967941
0.140721
0.113858
0.129321
0.129021
0.138286
0.0525193
0.140655
0.024595
0.124036
0.133137
0.140261
0.135426
0.119387
0.141177
0.0943636
0.123921
0.141488
0.0663139
0.137109
0.130397
0.0386971
0.0995486
0.130811
0.118241
0.126967
0.125862
0.121319
0.0600874
0.0403016
0.140806
0.122546
0.0932012
0.138807
0.135638
0.140117
0.0993936
0.139792
0.133019
0.0665792
0.139655
0.140034
0.142471
0.0991772
0.124145
0.13135
0.0985005
0.0818718
0.103078
0.113624
0.141269
0.108122
0.139937
0.0132681
0.139534
0.121577
0.073652
0.0140124
0.140816
0.136037
0.102112
0.125646
0.0389091
0.125233
0.103649
0.140052
0.0158539
0.141288
0.00201316
0.14035
0.0804404
0.128749
0.120855
0.00892757
0.0728027
0.124296
0.114507
0.115993
0.0412085
0.0275933
0.113442
0.113099
0.140272
0.00770354
0.104884
0.0892227
0.143089
0.114764
0.140648
0.0629545
0.0469189
0.141594
0.13855
0.140211
0.0490931
0.086381
0.0423525
0.117322
0.107832
0.110065
0.0373995
0.0707121
0.129774
0.129906
0.134734
0.134856
0.0890039
0.104044
0.0498484
0.133275
0.0790247
0.138803
0.111104
0.140819
0.0906135
0.0982842
0.0396221
0.140063
0.123861
0.127535
0.138989
0.119769
0.143884
0.140659
0.137497
0.14093
0.129636
0.0646732
0.0332435
0.136035
0.137657
0.0835845
0.134367
0.0120749
0.140496
0.0722794
0.140015
0.0173681
0.135074
0.0155562
0.145158
0.133655
0.134992
0.0314946
0.0905128
0.025828
0.0790459
0.0945629
0.129977
0.121356
0.0886213
0.0146002
0.138353
0.137447
0.143546
0.123872
0.141827
0.140452
0.13396
0.0610318
0.132276
0.128093
0.0922429
0.0497573
0.0644286
0.141434
0.141348
0.0970187
0.126613
0.0700268
0.140193
0.140168
0.140274
0.124817
0.119304
0.10867
0.108962
0.139132
0.10882
0.141882
0.0010778
0.113344
0.0800772
0.0878328
0.13147
0.140426
0.140263
0.140091
0.135932
0.13897
0.0393294
0.026271
0.140368
0.0890698
0.113472
0.13524
0.141273
0.110984
0.120271
0.13607
0.0672459
0.117286
0.123769
0.106277
0.0502883
0.14033
0.141171
0.0977445
0.138496
0.125603
0.0259066
0.140506
0.0753607
0.124903
0.135463
0.0912213
0.107168
0.090705
0.134606
0.141685
0.118789
0.0392818
0.119745
0.111288
0.0920182
0.126598
0.129691
0.0499859
0.066916
0.112244
0.0292551
0.0312448
0.0852296
0.125636
0.0904255
0.139372
0.132254
0.140366
0.102978
0.117246
0.0876667
0.0322637
0.0734442
0.136834
0.137716
0.095242
0.137645
0.142884
0.0833286
0.120827
0.00138673
0.14021
0.0652617
0.141816
0.114217
0.139844
0.0328554
0.109146
0.117328
0.140059
0.11783
0.0143902
0.133091
0.0235499
0.127287
0.024989
0.139922
0.0120857
0.0133886
0.0569042
0.126748
0.138454
0.140586
0.126153
0.0592602
0.0819347
0.118509
0.0542652
0.134602
0.1009
0.135444
0.13551
0.128961
0.00665745
0.0188463
0.0992066
0.11602
0.139926
0.0424251
0.101945
0.14015
0.0130403
0.104447
0.101589
0.140084
0.137845
0.0702082
0.114626
0.138928
0.124451
0.0853221
0.0086034
0.0645386
0.0145502
0.140722
0.117876
0.0175846
0.0711118
0.0902966
0.140765
0.0220538
0.131563
0.133479
0.127647
0.140777
0.0731245
0.0139185
0.0898518
0.123588
0.13271
0.0714602
0.119719
0.0975377
0.0452326
0.135303
0.132072
0.0927806
0.124417
0.100123
0.134512
0.0102693
0.105698
0.111889
0.0989826
0.131609
0.0578013
0.128565
0.0655226
0.137254
0.140969
0.0248554
0.113996
0.141954
0.0902317
0.0651118
0.131463
0.140124
0.109755
0.142355
0.140214
0.140632
0.101706
0.120001
0.138669
0.140117
0.0859221
0.129163
0.125613
0.108398
0.112287
0.126502
0.0969841
0.0735367
0.141905
0.138113
0.132294
0.10324
0.138611
0.115394
0.144451
0.137784
0.0978279
0.101479
0.14144
0.111724
0.0718962
0.139915
0.132467
0.140428
0.115414
0.140026
0.11372
0.140826
0.139985
0.04945
0.0590906
0.106747
0.0996166
0.140357
0.0933013
0.141396
0.140835
0.134187
0.12808
0.104966
0.131925
0.131081
0.109249
0.111711
0.0569734
0.127772
0.134302
0.140717
0.102619
0.137037
0.102806
0.128352
0.0379603
0.120833
0.125505
0.140336
0.120184
0.124062
0.0997793
0.139974
0.0836881
0.0190988
0.118504
0.1398
0.0752944
0.133471
0.135132
0.126045
0.138781
0.133325
0.130785
0.101586
0.138661
0.138784
0.139439
0.127877
0.138679
0.130246
0.0779719
0.110049
0.118948
0.0583595
0.130744
0.107093
0.140528
0.138446
0.0379251
0.128114
0.14212
0.140194
0.117484
0.140191
0.121892
0.128133
0.0734602
0.106682
0.124612
0.0844197
0.142725
0.0959659
0.14029
0.140777
0.124306
0.13971
0.0969975
0.084515
0.14088
0.126517
0.100385
0.116346
0.136131
0.0729928
0.140082
0.137263
0.109937
0.104169
0.1386
0.137888
0.132708
0.0793021
0.0544775
0.121489
0.12019
0.140566
0.107711
0.109373
0.104072
0.13833
0.134904
0.134584
0.0999193
0.12249
0.140603
0.063762
0.139608
0.123794
0.0922753
0.141062
0.129564
0.145209
0.0511585
0.109152
0.134369
0.123694
0.119186
0.139648
0.0820873
0.140144
0.101719
0.140156
0.138011
0.0297026
0.0546472
0.131285
0.134495
0.131094
0.0558977
0.146266
0.138128
0.0652009
0.1382
0.113909
0.0827274
0.141009
0.129176
0.120663
0.0732818
0.135265
0.139995
0.109984
0.0633078
0.100527
0.110034
0.0496284
0.140909
0.0664976
0.107633
0.140135
0.128288
0.134066
0.137365
0.0912869
0.0512133
0.140166
0.136577
0.0947538
0.134828
0.0862973
0.118949
0.139573
0.0279901
0.0526682
0.139988
0.126384
0.0990361
0.09667
0.065647
0.00151964
0.130781
0.122569
0.109369
0.0600706
0.145534
0.0974146
0.113357
0.141934
0.078565
0.130617
0.114495
0.118418
0.13229
0.132868
0.0739862
0.140393
0.132862
0.0962948
0.0368206
0.131452
0.0468715
0.140191
0.080497
0.125948
0.0467816
0.0441221
0.134469
0.125421
0.139778
0.0944679
0.108283
0.0625257
0.107581
0.0664375
0.109402
0.0671917
0.139223
0.136731
0.0124461
0.0407247
0.00656783
0.0647646
0.127925
0.0990879
0.135397
0.119574
0.139434
0.128434
0.137018
0.143279
0.0362903
0.136286
0.0958319
0.143286
0.13722
0.126995
0.0422813
0.105562
0.14275
0.140051
0.141737
0.120209
0.136943
0.133444
0.105062
0.110069
0.140488
0.0172305
0.13856
0.0641159
0.131759
0.108313
0.119113
0.129982
0.142142
0.0703714
0.0149433
0.142178
0.00928457
0.00355387
0.0738114
0.141301
0.108985
0.120835
0.13938
0.137707
0.137115
0.0739931
0.126241
0.140181
0.12176
0.139873
0.139898
0.0218052
0.131813
0.124792
0.140205
0.0800934
0.14145
0.123322
0.109352
0.106424
0.0945514
0.10558
0.12975
0.109061
0.135194
0.12552
0.143042
0.111818
0.125314
0.129038
0.131555
0.0958798
0.12964
0.132628
0.117737
0.0973137
0.086146
0.0168155
0.142275
0.13324
0.134337
0.138712
0.053279
0.0457241
0.140402
0.0261988
0.129521
0.0782481
0.0886051
0.0841769
0.108427
0.138686
0.115339
0.0847007
0.140672
0.139634
0.0950902
0.129471
0.0583652
0.0449141
0.138877
0.138225
0.142603
0.0992938
0.127201
0.098803
0.084759
0.0885174
0.138413
0.0894449
0.136913
0.00829598
0.119362
0.0319158
0.0816876
0.141776
0.141018
0.0655852
0.097484
0.107737
0.0682252
0.136879
0.133638
0.130157
0.0342022
0.0188112
0.0979806
0.0485974
0.140641
0.0549253
0.0694944
0.139431
0.13795
0.00804531
0.137145
0.143022
0.141533
0.094915
0.1368
0.0019111
0.135325
0.140679
0.131821
0.0797745
0.100771
0.139656
0.0810276
0.124553
0.121152
0.0479309
0.10644
0.140144
0.085263
0.095155
0.0893552
0.109492
0.0945019
0.136927
0.120926
0.139672
0.0205693
0.134433
0.101947
0.116816
0.112867
0.140528
0.0136011
0.0935102
0.13073
0.0718656
0.00871948
0.12133
0.131556
0.0788425
0.138694
0.134707
0.141184
0.139631
0.0850197
0.0822861
0.138308
0.0926182
0.0868168
0.136204
0.0292421
0.140142
0.115435
0.101398
0.141163
0.0723404
0.136367
0.0757461
0.140072
0.0843376
0.137285
0.136226
0.140633
0.140103
0.0913125
0.127902
0.108379
0.133195
0.140927
0.140775
0.137541
0.121274
0.140017
0.114569
0.143713
0.0168607
0.142439
0.141278
0.0149581
0.140156
0.127291
0.134353
0.0263045
0.0954302
0.0415288
0.104939
0.142146
0.10901
0.114314
0.144131
0.0246966
0.0842397
0.137379
0.106231
0.109786
0.0341211
0.139123
0.106819
0.0756949
0.131733
0.103339
0.127562
0.140923
0.0943987
0.135731
0.088052
0.111318
0.00237863
0.125953
0.14131
0.111523
0.139816
0.0219965
0.133353
0.0816956
0.116502
0.139968
0.140874
0.125596
0.132421
0.140337
0.119623
0.11596
0.144679
0.0944603
0.108128
0.0782448
0.13901
0.0608141
0.134276
0.133685
0.0561354
0.136628
0.140159
0.1174
0.0887604
0.140661
0.117313
0.140487
0.111475
0.132089
0.0845328
0.123972
0.108466
0.14095
0.047997
0.0914846
0.0749846
0.133852
0.00255369
0.11328
0.0982461
0.114855
0.135752
0.0591506
0.113099
0.0971276
0.0330724
0.0224078
0.139685
0.085191
0.0187485
0.126592
0.133401
0.0996591
0.122027
0.0369498
0.00964192
0.00461111
0.109881
0.137313
0.128884
0.140458
0.141319
0.138256
0.0102327
0.127373
0.110436
0.128429
0.0948872
0.127597
0.0129494
0.137688
0.0288857
0.13805
0.0874918
0.136481
0.104843
0.0925825
0.13926
0.139546
0.137477
0.139528
0.0159245
0.0834823
0.125815
0.0970063
0.0333161
0.136095
0.135499
0.139969
0.131421
0.035602
0.101006
0.130745
0.107944
0.139859
0.137535
0.104511
0.14142
0.140538
0.145061
0.139314
0.0212233
0.123118
0.122885
0.108117
0.113453
0.0909729
0.0194404
0.14122
0.125387
0.0599514
0.139689
0.129882
0.138564
0.109736
0.116021
0.133261
0.0812021
0.0787947
0.130171
0.101794
0.138388
0.0552746
0.0247073
0.0944456
0.0168999
0.122923
0.0725088
0.00401881
0.140556
0.0907539
0.140057
0.117869
0.0698822
0.130148
0.140724
0.106014
0.0700881
0.0625347
0.0748276
0.137678
0.134096
0.114948
0.0860399
0.0241077
0.128804
0.00302393
0.140435
0.111897
0.088536
0.112014
0.109143
0.0836325
0.083289
0.120343
0.140045
0.0297821
0.101752
0.102079
0.129715
0.140606
0.137373
0.140068
0.136769
0.0980887
0.103528
0.120145
0.141803
0.133533
0.131181
0.144053
0.140776
0.128289
0.135744
0.111268
0.083541
0.0151653
0.100294
0.141023
0.0928093
0.053518
0.00644329
0.0700211
0.10461
0.0855579
0.120047
0.140715
0.140393
0.0224912
0.0542707
0.128613
0.124407
0.119085
0.105368
0.117779
0.135357
0.138963
0.111011
0.111222
0.139269
0.00549912
0.120655
0.0818289
0.136914
0.112532
0.141145
0.0598464
0.137446
0.140604
0.139814
0.122659
0.139199
0.0353773
0.122939
0.139842
0.012017
0.0113667
0.111338
0.141608
0.139502
0.139986
0.139483
0.143344
0.141797
0.102524
0.0181074
0.0969854
0.142619
0.115422
0.0220062
0.120982
0.105665
0.116077
0.13739
0.140534
0.138216
0.0743625
0.0802687
0.0128686
0.107722
0.140652
0.102271
0.098145
0.140386
0.0994856
0.140369
0.103583
0.139861
0.0811329
0.0774959
0.0891252
0.140264
0.135556
0.130769
0.136174
0.114945
0.140255
0.112555
0.139953
0.120281
0.0963973
0.141248
0.13864
0.116949
0.128011
0.045117
0.108748
0.127149
0.110646
0.112685
0.135938
0.139848
0.0527635
0.140784
0.12378
0.11699
0.13835
0.140676
0.118019
0.128587
0.141138
0.0903444
0.140159
0.13671
0.0123024
0.127056
0.101398
0.021806
0.139752
0.114109
0.137736
0.137972
0.115809
0.00315966
0.140067
0.125997
0.1401
0.136362
0.121247
0.139037
0.0402051
0.136201
0.024101
0.115515
0.139711
0.0216792
0.054333
0.111925
0.140577
0.0960744
0.0587071
0.121331
0.141179
0.107932
0.112121
0.10442
0.139552
0.117026
0.0776361
0.0515108
0.116284
0.142027
0.135445
0.12624
0.0477226
0.0757029
0.137791
0.0658702
0.125538
0.135267
0.0941609
0.137458
0.112764
0.142142
0.139807
0.141038
0.142565
0.0631193
0.135183
0.126129
0.0762854
0.106963
0.140954
0.0894529
0.10122
0.0186444
0.0973245
0.140053
0.140083
0.059491
0.125879
0.114208
0.135207
0.141392
0.0120323
0.094286
0.139467
0.116074
0.0315314
0.0644251
0.139723
0.134827
0.139289
0.0123335
0.103439
0.105468
0.117661
0.0932463
0.117733
0.112466
0.128164
0.134029
0.0216243
0.015311
0.0979324
0.139706
0.110494
0.105078
0.115942
0.0887352
0.111732
0.140002
0.122071
0.130775
0.123697
0.091859
0.138985
0.140901
0.110154
0.142479
0.131216
0.140001
0.126733
0.0921152
0.0682016
0.138702
0.142698
0.107871
0.105275
0.12365
0.0961824
0.141912
0.139094
0.0944696
0.0176805
0.100369
0.140137
0.134292
0.0600437
0.135586
0.139209
0.128975
0.130199
0.139846
0.124778
0.140018
0.129586
0.0582811
0.11551
0.0119872
0.00896665
0.126058
0.122443
0.0518544
0.0885666
0.142742
0.130465
0.140978
0.140195
0.0909025
0.139634
0.0241161
0.141845
0.115058
0.0468037
0.12612
0.132363
0.117371
0.116034
0.135843
0.128231
0.0777539
0.0968234
0.136182
0.100896
0.111949
0.14128
0.128617
0.145606
0.134029
0.0336188
0.14002
0.137592
0.0856368
0.122894
0.0140986
0.0748839
0.134409
0.0394134
0.14108
0.142031
0.111321
0.0696673
0.0625298
0.139656
0.13025
0.0193165
0.0960778
0.133217
0.143972
0.118937
0.0652908
0.0706013
0.116497
0.00737789
0.0613328
0.116022
0.101902
0.118175
0.124339
0.140103
0.139037
0.0781734
0.105807
0.140557
0.0731199
0.0584683
0.0726946
0.142436
0.102261
0.124375
0.100785
0.0939544
0.139673
0.137895
0.0211697
0.0499045
0.138638
0.127749
0.0755716
0.0864093
0.129888
0.132285
0.140194
0.0920607
0.140672
0.138422
0.125654
0.140768
0.131033
0.135692
0.0213898
0.0358328
0.126127
0.123471
0.140143
0.13786
0.00582986
0.140586
0.0275932
0.112741
0.138223
0.137663
0.140562
0.138926
0.091232
0.136878
0.0160484
0.0614844
0.0462539
0.140242
0.119921
0.0344247
0.140631
0.130714
0.13716
0.11898
0.140923
0.135169
0.0565186
0.120011
0.0344836
0.0602232
0.0595568
0.113797
0.140128
0.0182857
0.140157
0.140717
0.133972
0.122171
0.107037
0.0478051
0.137507
0.0987025
0.111694
0.116664
0.0371612
0.129622
0.127174
0.0542225
0.058771
0.116414
0.117403
0.0792611
0.14016
0.0387809
0.128615
0.122125
0.0129734
0.140198
0.0121538
0.140436
0.140691
0.139219
0.129507
0.133395
0.135078
0.133996
0.139694
0.134384
0.121517
0.139268
0.102341
0.114166
0.110418
0.0751865
0.105641
0.0722099
0.13986
0.138218
0.137803
0.105945
0.116318
0.0572708
0.138116
0.026498
0.14072
0.14067
0.120335
0.139139
0.138221
0.0873719
0.101825
0.140103
0.0823237
0.121037
0.116958
0.0704699
0.116578
0.00722358
0.0550884
0.109138
0.13334
0.121693
0.13698
0.137408
0.121388
0.0142361
0.138549
0.124234
0.0290708
0.1343
0.107212
0.0744359
0.120774
0.138729
0.119382
0.140396
0.133398
0.015214
0.0450671
0.0354236
0.0850491
0.140116
0.141366
0.140282
0.0152353
0.0209234
0.138555
0.0754404
0.140706
0.0918788
0.103638
0.12499
0.13769
0.110914
0.139317
0.124169
0.0782525
0.141023
0.0735826
0.0909996
0.08693
0.0611238
0.108442
0.121091
0.139977
0.0610654
0.0899221
0.139559
0.130105
0.136982
0.133386
0.139344
0.135471
0.0989013
0.00909973
0.142467
0.0668357
0.0249288
0.138289
0.141018
0.127329
0.10178
0.0230518
0.0857667
0.0282751
0.0177583
0.089476
0.111119
0.0791996
0.136137
0.0163171
0.133179
0.0143653
0.141299
0.00302119
0.0630041
0.0667537
0.142107
0.140028
0.103716
0.0133294
0.110772
0.140649
0.13939
0.125495
0.10647
0.140613
0.129332
0.105926
0.138302
0.0638914
0.120659
0.133128
0.123999
0.10926
0.0899416
0.140728
0.119447
0.117038
0.138186
0.135417
0.141605
0.134028
0.140274
0.121338
0.141288
0.0528519
0.133741
0.135889
0.0138051
0.140159
0.139918
0.107397
0.133692
0.0847879
0.141408
0.0836181
0.0460477
0.111672
0.115133
0.0653971
0.0787437
0.140219
0.0282567
0.140846
0.120026
0.113621
0.116468
0.111259
0.138584
0.0957802
0.126573
0.0441937
0.119055
0.0858687
0.0682377
0.118785
0.10523
0.130071
0.103853
0.0983187
0.124687
0.0201408
0.117193
0.126033
0.104089
0.117413
0.094874
0.140638
0.124848
0.012493
0.109283
0.0720701
0.115609
0.108037
0.13841
0.112596
0.0819828
0.135176
0.142458
0.0136869
0.129708
0.104577
0.102809
0.0628857
0.140736
0.120303
0.117933
0.0419224
0.140126
0.122668
0.134047
0.0974392
0.105105
0.136569
0.0370966
0.12229
0.134126
0.137181
0.060189
0.132966
0.13654
0.113737
0.115922
0.140459
0.141121
0.0444739
0.0935146
0.0951649
0.136919
0.141933
0.088225
0.0862902
0.129213
0.0111281
0.142423
0.130539
0.058981
0.129811
0.0165961
0.133177
0.0944595
0.0242999
0.137715
0.138937
0.0516002
0.10015
0.142054
0.140094
0.112207
0.130501
0.141928
0.140883
0.0699024
0.141147
0.136244
0.111158
0.117436
0.14013
0.139433
0.128338
0.0740704
0.141018
0.14294
0.104906
0.113999
0.121443
0.117388
0.0460127
0.0829732
0.140594
0.110112
0.134154
0.14022
0.0785616
0.0950688
0.0582271
0.0916818
0.128549
0.0783363
0.107026
0.142374
0.108044
0.0221943
0.137904
0.135865
0.11761
0.10417
0.0130492
0.0508457
0.00412069
0.0544873
0.140953
0.136286
0.140122
0.0572718
0.13428
0.0536883
0.136248
0.133723
0.136107
0.142405
0.138812
0.136896
0.13581
0.0787341
0.140191
0.125577
0.028646
0.142054
0.138002
0.103836
0.103158
0.141735
0.102446
0.13989
0.0962048
0.136093
0.0817487
0.140131
0.0297014
0.126622
0.135943
0.137199
0.141463
0.100382
0.131335
0.100001
0.113278
0.112236
0.133175
0.113276
0.140432
0.122
0.11496
0.127203
0.140275
0.12958
0.138524
0.0729181
0.0344568
0.0892983
0.0563999
0.140578
0.0835874
0.139184
0.13238
0.0120561
0.13551
0.099256
0.0915329
0.0991725
0.139151
0.124805
0.135393
0.122868
0.132234
0.110355
0.137742
0.139831
0.118877
0.0935131
0.142853
0.127376
0.123403
0.13155
0.04718
0.133453
0.122103
0.0599068
0.115573
0.0208089
0.12958
0.0708014
0.140586
0.14137
0.0247327
0.114855
0.124496
0.143243
0.0416828
0.136044
0.138293
0.131895
0.119129
0.0941497
0.14173
0.0752763
0.142468
0.0117129
0.0176599
0.0691446
0.0701646
0.140386
0.132071
0.142273
0.125496
0.00936399
0.139017
0.141695
0.130367
0.137062
0.113703
0.136697
0.0328163
0.134704
0.140235
0.135204
0.0883125
0.124276
0.14031
0.107972
0.140364
0.131797
0.0993679
0.0814389
0.138111
0.140747
0.139365
0.119724
0.136846
0.0208839
0.0580313
0.0889661
0.14034
0.140863
0.0558489
0.11886
0.0933183
0.13075
0.103349
0.0251768
0.0779578
0.130876
0.116587
0.140525
0.0340736
0.136996
0.131669
0.0998131
0.0836032
0.126398
0.0978439
0.113072
0.0601195
0.089063
0.141479
0.00819435
0.111052
0.110266
0.130438
0.139833
0.113368
0.140697
0.137659
0.114693
0.0344035
0.061904
0.141273
0.112305
0.138568
0.0436968
0.103023
0.135855
0.00741408
0.142784
0.136086
0.0851197
0.140772
0.0212442
0.0928463
0.0331165
0.101159
0.14078
0.129717
0.0119363
0.0879917
0.00732387
0.122222
0.101784
0.128419
0.114078
0.120601
0.139381
0.11007
0.136961
0.136036
0.138197
0.0231415
0.0825809
0.140864
0.137739
0.0800328
0.140249
0.127595
0.141569
0.112857
0.137767
0.140048
0.123613
0.0281042
0.104775
0.138808
0.142756
0.108779
0.100452
0.142937
0.105656
0.106008
0.032174
0.13065
0.0416483
0.0315802
0.0646876
0.124647
0.0898259
0.0743387
0.0919519
0.0860522
0.0798326
0.0113948
0.121893
0.137477
0.0858569
0.103001
0.12965
0.0899825
0.139711
0.136709
0.134146
0.115273
0.0403483
0.140463
0.135161
0.137756
0.140571
0.0958479
0.141204
0.0430019
0.0813676
0.133919
0.13169
0.113682
0.137012
0.125106
0.0118967
0.122317
0.140252
0.135694
0.0988028
0.138457
0.106819
0.0132726
0.119419
0.0927994
0.103265
0.0443825
0.138385
0.121991
0.09734
0.010376
0.121847
0.0447167
0.109602
0.140762
0.0884256
0.11145
0.132488
0.128268
0.131079
0.0148293
0.107476
0.140672
0.140251
0.140228
0.135184
0.0906484
0.0105661
0.131121
0.134593
0.136178
0.140475
0.143418
0.0373348
0.0491419
0.109658
0.0967411
0.137768
0.0793693
0.0628894
0.140818
0.0969433
0.0305298
0.0208075
0.142093
0.136666
0.118434
0.14004
0.0795153
0.136543
0.00788434
0.0579321
0.115969
0.0366159
0.134353
0.140359
0.0746901
0.140966
0.120757
0.0389957
0.115899
0.13927
0.13197
0.138932
0.135002
0.0835914
0.125135
0.13611
0.138624
0.124279
0.0502356
0.127465
0.141513
0.140864
0.110677
0.139614
0.144482
0.104962
0.0884669
0.0119428
0.137773
0.121043
0.103617
0.139386
0.127625
0.0998425
0.123607
0.0238994
0.124543
0.120094
0.13538
0.13618
0.133385
0.104167
0.0951917
0.109842
0.138124
0.0329168
0.121606
0.0773643
0.13718
0.129732
0.107588
0.0912034
0.0895801
0.119498
0.0931957
0.134799
0.0928396
0.134575
0.138767
0.0273075
0.105829
0.131985
0.0120753
0.140728
0.131332
0.136918
0.113142
0.064319
0.138136
0.114773
0.132395
0.135188
0.144011
0.102749
0.106331
0.115003
0.140364
0.133307
0.0649112
0.0330944
0.125518
0.114527
0.0369861
0.138509
0.117761
0.133584
0.0310252
0.0409784
0.13349
0.130233
0.112265
0.0737637
0.1402
0.139865
0.124619
0.125948
0.122579
0.140505
0.141793
0.137862
0.138001
0.0742082
0.0940052
0.138072
0.137397
0.117384
0.139107
0.107815
0.109396
0.0644601
0.133603
0.0281712
0.0179829
0.142759
0.095986
0.140269
0.0713836
0.0773661
0.106044
0.139402
0.140537
0.133191
0.0531618
0.130875
0.0203906
0.0445912
0.118522
0.0126712
0.0956419
0.140822
0.113475
0.14017
0.0351249
0.116009
0.142601
0.140438
0.057574
0.140642
0.0544654
0.131628
0.10929
0.0905092
0.136222
0.130969
0.0368489
0.0598682
0.0706745
0.0767121
0.111371
0.0824653
0.135895
0.140048
0.125386
0.134826
0.122516
0.113924
0.136044
0.129218
0.132036
0.127358
0.141318
0.0497642
0.0801283
0.138269
0.142229
0.140004
0.130831
0.101695
0.136249
0.139396
0.107468
0.00269845
0.137518
0.136314
0.11037
0.0638889
0.132976
0.117449
0.0341986
0.0867972
0.140178
0.13479
0.141636
0.143106
0.102697
0.135724
0.0678143
0.1319
0.13205
0.0614601
0.0898519
0.137555
0.142294
0.0692589
0.122721
0.0422399
0.140253
0.0399536
0.111116
0.0796861
0.139308
0.0552755
0.140861
0.108279
0.0307571
0.0959981
0.147551
0.141577
0.0103066
0.130844
0.133064
0.139514
0.120381
0.141713
0.113675
0.113198
0.108037
0.121927
0.114304
0.062088
0.13679
0.118366
0.136296
0.0586901
0.108583
0.137486
0.099293
0.114322
0.140384
0.140759
0.0127087
0.0841154
0.132871
0.0615752
0.110594
0.141536
0.136557
0.130022
0.0765078
0.141037
0.0733384
0.0644144
0.023465
0.124036
0.140993
0.0816804
0.0704827
0.0628667
0.127953
0.0356669
0.113202
0.137697
0.135404
0.140146
0.132787
0.0905165
0.0781365
0.0674971
0.135957
0.077156
0.112703
0.0712087
0.141853
0.0894055
0.100252
0.134132
0.140343
0.136502
0.0906678
0.138267
0.1397
0.127981
0.138323
0.0177673
0.122721
0.115156
0.0950018
0.132923
0.126313
0.104349
0.132296
0.113324
0.106066
0.123556
0.121163
0.097657
0.129384
0.0849895
0.0572983
0.129092
0.108178
0.0679219
0.105426
0.141076
0.109221
0.141269
0.136659
0.120459
0.116116
0.107107
0.140256
0.112737
0.129188
0.140188
0.137283
0.140296
0.0292336
0.124533
0.136629
0.0806669
0.122446
0.134186
0.140922
0.134743
0.139992
0.0992919
0.140039
0.128982
0.140229
0.140028
0.0255471
0.0227861
0.140116
0.130206
0.14016
0.101735
0.14329
0.0367006
0.135943
0.141377
0.140376
0.141563
0.0408681
0.131638
0.118921
0.0813197
0.0720608
0.140017
0.0747159
0.0834113
0.0227882
0.0529913
0.124241
0.138894
0.111662
0.00548971
0.140481
0.112648
0.102643
0.126351
0.140627
0.13982
0.137592
0.0616292
0.119654
0.0709681
0.129441
0.130438
0.137922
0.138367
0.139531
0.12948
0.0206061
0.0449389
0.122657
0.00619616
0.102753
0.128147
0.120427
0.139792
0.142412
0.139879
0.127718
0.0642607
0.0325954
0.138578
0.140055
0.0419118
0.0481156
0.13892
0.140364
0.135645
0.134601
0.137269
0.0910667
0.132906
0.141516
0.0824358
0.12088
0.0623796
0.125596
0.120356
0.0169856
0.0500167
0.0674221
0.0217587
0.138723
0.138162
0.0431283
0.0121961
0.077476
0.106121
0.106384
0.128939
0.122626
0.124467
0.0122005
0.143189
0.133848
0.0258928
0.139838
0.123534
0.140812
0.114791
0.0601171
0.0513922
0.140537
0.130802
0.114383
0.0192214
0.111091
0.133388
0.142107
0.141306
0.0621408
0.134659
0.12233
0.137041
0.0787207
0.065546
0.108958
0.107635
0.13888
0.140197
0.13721
0.140275
0.0864953
0.135723
0.131669
0.076393
0.125389
0.119162
0.00609028
0.142649
0.139468
0.1214
0.0343796
0.138655
0.140315
0.00344358
0.126504
0.0165854
0.0952246
0.086796
0.111029
0.139541
0.128283
0.132565
0.133605
0.0647862
0.131806
0.0914158
0.118775
0.107511
0.121486
0.139241
0.13887
0.0782259
0.119409
0.119849
0.100073
0.118677
0.019771
0.00795711
0.13185
0.122111
0.0834071
0.11572
0.0293907
0.0301966
0.140955
0.0400684
0.0787838
0.11007
0.141179
0.139941
0.137885
0.139427
0.00821964
0.0429528
0.0502819
0.095741
0.112573
0.136167
0.139769
0.10965
0.0888258
0.139362
0.139785
0.139746
0.140664
0.140059
0.133391
0.0810377
0.087058
0.0311423
0.104847
0.116067
0.129068
0.140682
0.11379
0.140164
0.0742287
0.139964
0.0449538
0.0841076
0.0804631
0.138001
0.113212
0.121356
0.141546
0.10756
0.0963873
0.123453
0.13887
0.126221
0.0780759
0.00929448
0.140087
0.106556
0.0623888
0.116236
0.141023
0.139651
0.131385
0.111507
0.128715
0.140488
0.138278
0.108221
0.136571
0.123123
0.100708
0.119643
0.113812
0.127083
0.120899
0.116365
0.122338
0.141069
0.122674
0.138047
0.134953
0.0515205
0.0465381
0.111841
0.10891
0.126689
0.126748
0.0953137
0.0802017
0.0289824
0.0730318
0.129684
0.118037
0.103821
0.140386
0.142033
0.0860087
0.119607
0.0957716
0.112742
0.131702
0.0704743
0.11824
0.060006
0.140616
0.140193
0.129922
0.0113999
0.142351
0.122914
0.140548
0.114885
0.114572
0.13992
0.0776822
0.0584562
0.11108
0.140009
0.122435
0.130232
0.136489
0.14012
0.136675
0.123082
0.139817
0.0586697
0.128227
0.11724
0.12939
0.125429
0.139457
0.0018113
0.118966
0.140167
0.140172
0.0491446
0.139219
0.099002
0.140802
0.0690332
0.0895636
0.0528852
0.0958844
0.13839
0.0842085
0.0416976
0.112393
0.136556
0.0981598
0.140134
0.0842007
0.0871791
0.0478218
0.107508
0.141465
0.140105
0.135415
0.125032
0.1048
0.140135
0.12664
0.117748
0.140137
0.0311419
0.139349