/*--------------------------------*- C++ -*----------------------------------*\
  =========                 |
  \\      /  F ield         | OpenFOAM: The Open Source CFD Toolbox
   \\    /   O peration     | Website:  https://openfoam.org
    \\  /    A nd           | Version:  7
     \\/     M anipulation  |
\*---------------------------------------------------------------------------*/
FoamFile
{
    version     2.0;
    format      ascii;
    class       volScalarField;
    location    "100";
    object      p;
}
// * * * * * * * * * * * * * * * * * * * * * * * * * * * * * * * * * * * * * //

dimensions      [0 2 -2 0 0 0 0];

internalField   nonuniform List<scalar> 
11372
(
-29.8518
-44.9529
27.7352
-55.1252
0.429269
-46.2071
-6.99687
-39.7723
-5.9104
30.08
-4.53481
37.8864
-27.6095
-0.424161
3.3083
-48.023
-20.458
-9.07144
11.6132
13.2296
-31.7298
-0.530592
-13.461
-31.2072
-12.8298
2.36527
-72.4346
5.07393
11.4497
12.0859
12.7445
10.349
1.35514
0.531498
56.0568
-0.998458
-1.70455
0.149282
-6.04459
-8.90051
-22.6006
11.1523
-1.09156
42.1612
4.3962
-24.4712
-9.59524
-46.0267
-50.0747
-0.375058
-32.3417
-5.17785
26.8668
-13.4002
10.7894
-4.99172
42.8488
-48.8936
-0.266869
35.3136
-30.6862
-10.0194
-0.537092
-29.9151
2.41789
-1.20838
-14.2668
-75.1571
20.1912
-30.4957
-0.153174
-7.40353
-1.82344
-3.37284
-18.0159
10.8025
-59.4534
2.70672
10.086
-35.7359
-49.4348
36.9278
60.6575
10.2675
-92.7721
-36.5769
1.09287
-3.88986
19.896
-34.1623
-1.41493
4.86882
-51.2653
6.73816
1.33201
5.52692
-22.143
-1.55253
-35.3959
1.37419
7.17656
24.503
9.50518
-0.746082
11.8776
59.6345
-38.8748
10.4209
3.54383
18.413
5.40402
20.9629
-10.459
11.4056
-54.0548
6.22355
-36.1807
4.84941
-0.583093
-19.3105
-66.2199
-20.8528
5.56034
6.38419
32.494
12.399
-12.4886
-27.8387
-1.20797
-27.5083
-17.5537
-8.02901
-41.3235
-27.8114
-11.9176
-2.45347
-7.67407
4.2474
55.4487
10.1943
4.13715
10.704
-31.3187
6.16267
0.267405
-32.9347
-64.9375
13.5731
12.5089
-36.4414
-0.703711
-20.5331
-16.3543
-47.0113
8.22222
-2.77296
-7.51684
-5.48991
-16.8528
12.3625
-7.76494
-0.860307
-23.6716
10.4436
-30.5404
-16.007
-17.6158
-49.0489
-1.1501
-3.89982
-73.8958
-0.604548
-28.8308
-19.479
-1.85067
-39.788
11.1871
-79.8155
-44.9169
8.71515
8.44407
14.1334
-38.1263
-51.0221
-32.2251
-35.9624
30.4137
-27.9888
25.1382
-49.2097
-0.0771434
11.7318
26.3857
-8.10344
-24.6193
-7.10204
-77.3681
12.058
-28.9517
-9.84333
12.1118
17.8708
15.096
7.84044
4.75601
-4.2407
0.00144913
-10.2235
-6.13345
27.0147
-46.868
-7.08323
0.362449
12.8848
10.952
-17.8844
11.4249
13.7078
-8.40081
-49.221
-47.5095
13.2251
58.3124
-29.0545
10.6124
-1.59933
-38.8103
-3.89064
10.1547
3.2494
10.9615
10.3203
-15.9367
0.365156
-62.2775
-35.6353
-23.1699
4.41092
-16.9902
-14.8255
10.2762
-38.7281
6.77411
5.13449
11.2653
4.25949
13.218
-13.4117
9.23132
-40.7371
-0.752541
-0.193292
-78.5235
0.256087
-30.4547
14.6877
-29.9553
6.66588
18.7128
5.74892
-20.7282
10.9892
0.436984
11.8376
32.7273
-10.2804
2.45259
-29.4059
57.5119
-17.5004
64.7876
-10.9298
7.49717
-10.8874
-6.32399
-31.4067
6.64458
1.32759
4.57619
0.416498
0.426879
6.55394
13.1194
5.25767
-27.0977
0.463323
-32.1312
-30.7622
-1.75174
-1.20355
-69.8802
11.3034
-72.2792
0.220592
-32.0547
7.52931
-66.8029
3.24829
-8.06213
-39.5728
10.3717
-32.8798
57.2698
4.06284
-0.595663
-11.9658
40.2719
-0.151809
9.45595
-3.86927
7.64488
9.90436
-13.8224
-67.1412
3.06435
8.47534
-32.4718
-20.3735
-11.7436
-26.835
5.18067
-49.1738
1.12011
12.9656
12.3094
-58.5777
-32.5537
19.2368
-3.64982
-6.51989
5.74988
12.0224
27.2129
-21.4646
-3.27717
-17.0173
-0.465857
-31.7516
5.79436
-6.06213
-41.2881
-7.70517
3.15605
-5.24591
-2.51793
1.52052
-3.82978
-5.08839
34.1534
10.5291
37.2851
-13.3479
23.1686
25.5716
11.3982
-23.6221
42.1562
21.2109
1.04519
11.7044
-3.42945
-14.3455
12.312
0.570001
2.97097
-31.9481
-14.3079
46.8974
26.4087
13.0461
12.3202
-2.51076
-42.1322
-62.5435
4.57792
28.4831
40.8804
10.9625
-25.8237
-62.363
1.40373
12.4255
-7.89529
-13.9104
7.10037
20.6904
-58.4033
4.73757
-28.8356
-3.74495
51.9935
-29.9892
7.44923
-5.80955
3.74038
-8.50934
-0.245122
-70.979
-12.3533
-31.6556
18.2037
-5.20685
0.0517733
-58.6318
-1.34024
-3.57185
56.5054
-26.264
-10.8454
-2.02965
8.66583
4.19913
-1.33439
-46.2463
-31.3267
-40.8519
-27.2245
9.96463
-2.33301
-2.48769
6.17311
-0.955168
4.8421
-20.0684
11.5644
9.94353
-30.1506
0.208893
20.3561
9.80767
-1.1556
-1.70058
-1.73216
-40.0397
-23.389
5.49955
3.01305
13.0217
-40.6176
-5.16718
-15.4263
-1.2515
9.39326
-4.5821
0.627655
-45.3137
-39.8823
11.3631
-29.9111
45.5383
-2.36396
-38.1202
-4.46063
22.3376
-25.1674
-24.712
-0.304954
-35.1966
10.7059
5.04262e-05
1.1062
37.2259
-25.8722
-10.9087
-30.4676
29.2362
-4.35228
-20.992
4.09858
15.9514
-3.74731
27.5501
12.4516
-32.3543
50.3745
23.1636
-24.8517
-0.301275
-1.17594
-19.7405
12.9847
59.3717
-30.7481
4.52174
1.10356
-39.9034
5.2998
-14.3973
-0.286623
4.09131
-35.2008
-0.278708
6.47869
-0.533879
-9.2515
17.9019
24.9623
-1.32183
12.453
10.6328
9.33546
-36.0612
-29.0156
-32.2261
17.7531
-5.14665
64.1201
4.89327
-39.8064
0.497978
-51.6215
-8.46888
-19.7013
9.93403
10.0551
8.18948
21.6943
16.2271
25.5616
-13.9695
-21.6556
2.0658
7.10263
-2.94398
19.8722
3.74825
-46.4317
0.910693
-35.2289
-7.04799
3.24144
-1.55878
3.50414
-17.9166
-1.02197
3.21839
0.753627
-2.97781
-14.8921
12.4443
-0.0199315
-31.0791
5.59124
18.3049
14.6408
-10.2695
13.4408
-6.83484
-33.8369
-43.2486
0.402036
-3.96903
-29.2868
11.3061
0.514259
3.82381
45.178
10.6432
-8.33891
-42.3009
10.5905
4.0758
-0.631154
-28.2137
3.47067
-9.21248
36.0318
-29.6286
-12.1411
7.23692
0.458483
-0.820481
4.57819
-42.7479
9.0717
20.7771
-33.8759
-28.9211
-1.48926
7.35735
-47.8184
-10.2791
-26.0757
-34.5784
-18.0949
-0.831025
6.50746
-3.14825
-43.7298
-0.242251
4.93118
-5.58449
5.6468
-33.7258
-7.5499
-12.4846
-18.2656
-0.872298
-50.1447
-34.8005
-21.6669
-17.372
4.97646
-33.9389
13.4476
1.93232
-1.51678
6.78277
0.350166
-35.3921
-50.1091
-0.894923
11.8182
8.51684
-23.842
-5.64955
-33.6303
-3.06085
-23.0595
-73.3316
-25.462
-19.4499
25.1182
25.4054
9.9671
-9.62444
-30.5595
-24.9735
-25.9372
4.23537
-39.8164
11.2968
-15.8682
-1.8325
-28.0158
-21.5988
-49.1732
9.75166
3.43627
-11.7634
8.93521
-0.382654
-0.0513292
0.136611
13.0053
2.14108
-5.56846
-28.6611
-44.4457
-0.504646
-0.414617
46.6721
-3.93286
26.0609
1.89335
1.75642
9.47771
-32.062
12.5337
45.0653
-0.821226
-0.0182148
16.4124
-66.8997
6.24313
-40.9864
50.2442
45.7696
-5.83022
-11.8451
-33.8531
16.6053
11.988
12.267
1.39277
-1.31598
-3.9346
5.17538
12.8156
-15.7611
12.1373
-0.916501
-57.5853
-29.457
-41.6325
-2.55836
0.377623
0.739352
6.70541
-5.51042
8.45031
9.42484
4.56387
-16.1482
9.98732
-4.71326
12.7248
11.0092
-20.7639
-3.70411
-30.409
-21.1321
-26.1743
2.19396
-11.4169
5.95211
4.01841
7.50186
3.15657
11.4275
-37.1984
-36.9517
6.69527
-55.4628
10.858
14.5528
-0.699103
0.811297
14.0319
-3.43471
-39.0495
-5.17339
31.3299
-8.70819
-24.2645
3.63517
1.54246
1.43717
-6.17133
24.559
-45.7893
4.76338
-0.104721
-5.325
-0.7212
-20.8364
29.2194
-6.24283
-2.32478
-3.31506
5.03275
-66.0152
-8.82144
-13.2096
-15.9614
27.3272
24.9257
-32.3225
-68.6082
-74.5734
-36.4287
-33.1541
-22.5202
30.676
-19.9621
10.9731
-4.53432
7.58228
-78.1136
3.21328
-56.1118
-28.7188
-24.3457
12.9378
-8.17295
4.0174
12.8179
-0.720138
-24.7119
2.43218
-30.7051
8.53802
-17.6047
-4.31016
4.60427
10.4587
31.9553
-13.558
12.5856
9.48381
-33.8827
-92.8859
18.4723
-39.7879
-2.53533
-28.7991
10.345
-55.8465
40.3549
58.2334
23.1763
-2.67328
4.35444
-1.93352
-45.4213
-54.2001
-9.82018
56.2583
-7.35464
-1.10356
16.003
0.4523
-7.15197
-39.3596
-34.1183
-1.22808
15.3647
8.64859
-24.276
-33.7401
4.26766
-36.0391
1.1271
-2.36075
4.74458
-1.77343
-2.55037
37.6871
-0.651465
-21.1284
-25.4493
-31.366
7.26276
-32.4797
1.68744
34.7564
-45.8165
54.3162
-15.4898
-1.24876
-29.5483
14.9021
11.6222
26.0147
0.199699
-33.3858
-98.4064
-30.9999
-1.45393
12.6589
-52.1459
-33.9116
3.22945
-56.9464
1.48657
20.5838
-20.0482
28.342
-11.5799
3.93926
-63.6407
-15.2465
-22.2505
13.5194
13.6938
-46.5197
0.0696169
38.2024
11.379
0.60005
-35.2897
0.335117
-3.16498
-28.1377
-33.8651
-6.71182
7.86245
40.9934
-1.11624
8.08994
4.1438
1.32685
0.422488
11.4618
7.30254
-21.0729
26.3232
17.522
-44.2527
-10.716
-3.13136
-25.3006
-12.5776
-0.589206
4.87433
-4.1578
35.6909
1.91722
-0.408963
-0.418481
-3.43874
4.78411
2.80253
-2.4575
-15.1177
-9.08894
3.6404
7.08617
3.96933
27.9788
9.81007
0.578309
1.20115
10.3612
-26.7054
-42.938
1.71665
1.68174
-0.333552
-60.1268
-2.95133
1.15941
18.1742
24.6058
-14.1281
7.73859
0.0112798
1.40481
-19.1423
-27.6594
14.6825
-4.14587
0.498129
-71.9743
7.72948
-51.5403
-9.67659
-48.7846
19.8948
0.0276125
4.06495
1.55733
-6.74643
19.5219
10.3293
22.8379
-30.4378
0.748151
10.5607
-34.9029
15.1079
8.51256
-1.78616
10.5839
19.836
-0.31959
-51.4827
8.88712
-1.73715
9.97539
-3.74403
7.04682
5.14468
-32.4662
-4.56834
0.0153599
-16.2841
-3.43544
-54.7659
5.98398
2.78096
-67.9691
-2.96551
-0.162907
7.9794
15.0196
9.06021
-1.43001
-13.7774
44.2885
-22.1338
-1.83437
3.65859
-2.72319
-29.6176
0.840115
-2.55772
-1.33971
1.83187
15.8748
-51.6137
-2.70692
25.5395
47.636
-20.5751
15.1348
-2.64102
9.77587
10.9474
19.4679
-10.6562
11.8455
12.6783
-5.93096
18.1284
-67.2225
-0.190887
35.8622
3.85062
-46.6552
-22.4227
-15.9659
11.9397
-7.46797
-0.244838
-12.5581
0.127778
3.46881
-33.1378
-3.96857
-2.26557
-35.6549
1.81957
-10.7937
-0.0621934
-48.2582
7.02059
17.5287
-14.0232
0.160987
10.702
-24.192
7.24397
1.56196
8.84426
2.97278
61.1038
-30.0703
-9.07144
16.7453
13.7021
-37.2314
1.258
8.22448
-44.8219
-2.72249
21.0174
3.8546
0.0861272
14.0942
-0.322667
-0.186065
5.5623
3.63121
0.703562
-35.1746
-5.48998
-23.9698
-51.1338
0.958025
-4.91937
-58.8955
9.2919
-6.34564
10.1491
13.2016
2.49287
-40.0909
9.2329
12.4112
-46.0066
-3.21323
-21.912
-10.1808
10.6558
-33.9828
-44.5982
10.3644
9.66044
-17.872
6.31195
-50.4343
-31.1958
-4.29677
-17.0981
-22.3609
36.4369
-0.752726
-7.01567
0.577811
-3.90617
-33.9752
18.2061
-13.7428
-8.45418
-3.54099
-4.81147
-3.45218
6.70382
-4.0767
-60.0478
-32.9676
-0.042081
-39.4112
6.9071
53.6131
-3.27041
-43.9521
-45.2833
-9.62039
4.39365
10.5528
47.8274
11.998
18.5982
-23.4122
-17.8073
6.41313
55.5314
10.8781
11.8683
-41.0714
-58.128
-30.6556
-29.8776
-9.37576
-27.5609
16.3055
-2.98231
-1.68582
24.8462
-0.858114
1.68924
-35.8236
14.5616
-6.52051
-0.790275
13.4618
11.1381
-26.0597
1.09226
-2.55418
9.44982
-2.95207
-7.97349
-2.78769
-4.20457
-50.2437
-80.6008
1.9325
-48.3337
11.5743
56.3616
5.89178
-38.1899
-18.6712
16.3253
-3.36158
11.3914
-47.1041
-2.3217
-40.7711
61.9506
54.8099
0.664809
-64.3092
-34.8652
7.71255
-2.5741
0.442158
55.0391
-15.2169
9.39487
0.102428
10.4089
10.4459
63.0969
-33.2528
-2.21495
8.73382
-1.36096
0.574898
0.26029
-29.9668
-9.22024
-1.38735
24.441
7.56491
-6.41873
-9.48029
20.1208
-0.613539
17.5507
-2.40019
6.33551
-0.169074
-10.9584
23.9775
19.8015
-3.03937
-13.784
-13.9685
-37.6393
-0.300878
19.1597
-0.00889997
-0.756593
-29.6286
-45.6652
6.02373
-30.2921
-4.28192
2.48863
-27.5314
2.95935
-23.6255
-21.5086
-16.6341
41.6508
2.37247
10.5698
44.3426
-4.09306
33.8888
-50.2881
-2.38675
9.76021
-1.83643
-66.9054
-6.81723
44.3199
17.8555
-54.0404
11.5696
-30.414
13.9325
-39.1268
-0.315553
-29.0262
37.0267
-1.02456
1.61351
-0.680586
2.53664
-4.02092
-36.7754
-1.35009
1.23259
17.2281
-16.6383
-40.4258
-53.9748
-56.0127
3.60705
-33.4855
26.0023
10.7096
6.18253
-49.9665
13.5186
-2.05222
-2.85462
-13.1372
-0.13388
-39.3307
4.54253
4.80158
-4.53135
-24.1646
-26.5225
6.98713
1.96331
-7.89624
-17.578
-47.609
-79.6459
1.43928
-30.4834
-18.8978
-32.5553
42.6432
-19.5396
10.6483
-1.15146
10.3956
-29.7737
5.70663
5.88997
8.03228
-0.226928
5.0265
-12.4836
-52.5883
20.6543
-25.4809
-39.4651
28.1478
-1.78341
-35.7144
11.4918
-3.6381
-1.50089
9.63426
-57.3727
-19.5959
11.258
-34.2283
-16.2389
14.99
-49.7377
8.88486
-0.0580427
-1.63445
-2.89131
4.45152
14.6816
-19.5507
10.0014
-31.5299
-23.6322
12.7542
3.29634
7.67134
-8.03339
21.8743
4.46949
-4.51026
2.82008
1.59163
-0.844239
-9.02259
10.0432
18.2761
-0.505592
-93.0899
-0.806562
-2.19
-61.4744
1.64129
-6.41368
2.24184
-36.7703
-58.3749
-31.1917
-5.07749
-3.7612
-23.7419
36.9502
-0.561031
-28.0025
-31.8154
-0.0226783
-14.9839
-19.4851
44.1936
11.3776
1.52064
-32.0867
4.00092
-24.3413
0.0446633
1.8906
-51.7094
15.7771
48.6914
6.63366
-41.2747
-2.84935
-5.17099
-18.8749
10.5542
-36.7202
19.5435
51.1108
-18.2145
10.2371
1.58988
29.5073
-10.1269
4.09253
27.5153
6.56053
-0.609904
-24.6503
-73.8991
-32.2721
11.1777
42.0236
14.0095
18.4593
-48.7672
14.4788
7.89074
-8.22489
18.1439
0.428526
-18.1385
5.20333
21.5431
14.7355
-35.6218
-16.5088
-2.81331
2.21214
-17.5383
-43.1131
-9.54725
9.21423
64.8925
-10.127
-27.9526
-8.27476
12.3353
-47.778
14.7798
3.44137
36.3223
32.3123
-5.92582
47.8514
-40.573
27.9834
-0.536713
-23.2736
-6.61377
7.93763
-44.1485
46.1793
-0.829162
-0.234999
-5.83509
5.58769
-1.90496
-5.34601
-45.4227
9.21529
-5.67983
-10.9337
49.3606
-21.2712
-49.0327
4.92862
-62.5884
12.3075
6.5022
-1.22718
-25.7767
-11.455
-1.2987
5.40141
12.8829
10.7417
0.100633
-19.9938
-6.89057
-18.4525
26.96
14.1906
-9.30711
10.4367
-1.37895
-28.3362
-24.8309
22.4257
6.8364
-6.55384
12.9991
-0.512748
-3.87304
5.70315
-0.0853303
-4.83817
-37.0778
-12.5924
11.5315
-61.2497
-10.571
-53.8592
-37.6172
-1.34598
12.3855
-44.4194
10.656
-5.15163
11.7258
-7.99981
0.349121
18.9572
-43.837
-61.5387
12.5108
-25.0906
11.8818
-32.706
61.3235
-29.5382
-59.6846
32.5355
-19.3758
-30.2511
3.38121
-57.9409
9.3069
0.148005
-31.2815
-3.10041
-3.89469
44.3092
-24.1441
39.3761
-11.0439
12.8961
-8.30994
0.70925
-68.2861
-31.6547
-11.3156
61.2778
5.86167
7.10402
-33.7345
5.85132
-0.550045
-55.6571
-8.71016
27.4473
9.71724
-64.8863
46.3857
-4.76719
0.116537
3.25637
13.2935
10.1098
14.208
2.34233
-4.32558
13.5232
-3.18309
-1.38303
17.2103
-0.414651
4.13924
-1.36962
-3.61511
-4.78808
-18.472
2.38737
-22.7006
0.286751
-23.7856
-23.7129
-39.5249
-58.4319
-2.28603
-33.5929
-8.7731
3.3418
-3.0935
-46.1191
-30.5337
0.0838159
-3.44806
35.4348
-54.6106
-10.7252
-1.79273
3.92031
-43.9446
-0.665056
11.0013
-39.7194
5.63945
-25.5114
-8.67696
-9.79971
-5.15775
-43.0898
13.1255
2.52594
-2.26157
5.53338
10.9141
-49.8695
-11.0677
9.74295
-29.7546
64.0576
-3.43449
-0.307191
7.19292
0.686168
6.2025
-1.10991
0.261793
-6.07644
8.88555
-18.056
-0.708996
6.24055
-42.6136
15.7404
-25.2705
-17.9942
13.2952
4.21095
12.1894
-39.9924
-35.624
-62.5771
3.19629
-2.84506
2.88401
0.798759
3.81233
4.64665
1.7027
-15.2602
5.67741
5.33737
-37.0098
-30.4794
-5.16517
-3.10755
15.033
5.69983
0.519282
8.20158
-20.0986
-4.1276
-7.41009
-28.9693
1.27401
-1.3895
-5.20211
-11.4598
-25.451
-14.1172
16.1867
-12.57
2.90372
-0.215863
6.00879
58.3041
2.06551
26.5039
-10.8245
12.098
1.2786
36.3926
8.73824
-0.495234
50.4235
8.38855
-1.85436
-40.0652
-9.46181
-14.4056
-30.3478
10.6072
-73.2674
10.7209
-1.56104
-35.5042
-28.1207
9.88094
5.7101
8.94821
0.455297
-36.2636
11.4234
-55.4431
-8.55786
50.9563
-8.67814
10.5947
-61.1584
-42.0007
40.7385
4.68056
-22.9641
-15.1431
-12.5436
-0.467323
-24.5869
-7.14528
42.7107
-2.21852
-8.48703
-35.8402
-54.4035
0.47635
-3.47178
12.8334
-6.54021
-49.0349
-33.9068
-1.38882
-31.2925
21.961
-1.27398
6.07012
-7.07339
-19.1933
-2.63498
10.3675
-0.645409
-2.71409
51.3309
16.8861
-14.407
4.68946
0.558156
-1.13927
1.03724
-71.9678
-54.8782
6.4642
9.6039
9.67815
39.5581
0.143166
22.9057
12.9537
-2.22437
49.1745
-51.2759
-0.467825
-9.90601
-43.0446
-4.60097
9.25083
17.6927
-7.02901
61.5552
-14.757
-66.9766
37.7144
-5.19687
-9.28213
-5.22839
22.8918
16.0932
-38.6859
-49.7608
3.01751
2.87194
11.1163
0.634431
-20.8652
-7.05195
-45.0867
1.93763
-8.12603
-5.21789
25.8321
-5.63263
4.93268
2.95828
-34.2851
1.1749
-0.217457
10.1386
0.204044
3.57462
-2.44127
5.76198
-2.51965
-48.1897
-11.147
-0.174662
-10.7566
-1.02008
-0.00829264
49.123
-47.257
-15.2052
-0.663711
17.8667
54.6982
15.8934
7.11313
24.5118
-5.49281
10.4606
-6.57125
-5.71904
21.2377
-46.3709
-79.1154
-10.6804
-30.0473
-1.22938
22.1282
-50.6138
-31.941
-2.05017
1.35275
1.31455
4.49683
-11.0975
10.6677
-33.0582
-4.10323
-76.7041
-61.7872
15.6222
8.02035
0.416217
-14.5766
13.5289
-4.79489
-29.7182
0.150368
14.4233
-35.7457
0.597636
-1.56202
-2.01376
-0.55369
14.8606
-39.0445
9.05755
13.0357
-22.4645
-0.389557
-30.7082
-17.1895
18.4232
-44.987
-1.59211
-0.0349606
-27.1878
-42.4838
-50.7241
2.36276
20.4027
-58.0398
-17.8663
-0.873868
-0.142181
-0.973978
-30.1107
-63.0467
-18.8188
-42.0836
-18.8755
-20.4914
-68.8858
-18.9453
28.9717
10.0114
-4.6054
4.97867
-25.3492
4.70478
-38.0737
-22.4512
-19.8121
0.502304
-18.208
-16.2395
4.16653
43.0877
-1.49609
12.5783
-38.9372
-52.6348
11.7612
25.6687
-32.6709
-22.8111
-4.73771
-11.1777
8.37968
-19.0663
2.79098
8.77574
-5.47369
0.972248
-1.40761
-0.497892
-42.5386
-26.711
28.1467
-4.61504
9.79663
-7.26275
-51.8945
-4.61553
-29.2496
6.93707
4.27256
8.00513
0.595338
11.2385
-21.114
14.045
-40.81
-24.7482
-5.04881
5.88564
-17.034
58.2257
-4.16376
7.53421
0.0319329
-7.34162
-1.59039
-0.121157
-44.4038
33.8482
-37.3153
-33.6053
-7.78369
-7.9075
8.37749
62.4172
9.18363
-5.84566
-3.76113
-0.7347
41.0158
-22.3478
-2.98676
-4.55559
-13.0372
30.9775
-40.4006
0.0602429
0.00454331
-33.9022
-39.6025
0.0668333
-1.33291
-53.5546
-1.99222
-49.8599
-0.70675
13.5255
63.3678
-4.977
-47.2136
5.89561
2.47566
10.8827
11.5351
-5.16834
2.57242
13.6162
10.5791
-2.8062
-17.7627
10.9021
-26.7783
27.0259
-23.6553
-19.1625
4.98959
-34.353
-2.31273
12.4373
-4.92703
2.31319
36.4114
-34.9788
12.178
-47.8783
2.31013
-0.0890201
-13.2814
11.0509
-0.91178
1.20908
-17.2513
9.08076
-15.0832
0.294186
-0.468515
-37.3768
-40.0214
-61.9638
-36.766
-24.0325
18.5597
-8.45239
-2.43264
-0.0676688
5.4486
-34.9782
9.88421
-6.27653
-26.2811
-33.259
-14.7116
3.66101
1.02265
11.7313
-9.77298
6.56591
19.1229
-29.9269
-23.8103
-38.8377
-24.2449
-4.71569
-2.81699
-1.69677
-45.6043
-29.8542
-5.643
-26.1844
3.16162
24.9358
7.21283
6.44885
12.9501
-66.4764
9.00301
29.9986
-37.4226
2.197
54.8693
-32.1696
-46.5766
-15.0291
0.277276
-5.81128
2.78035
-40.428
-9.84466
10.1416
9.29543
13.7912
-9.51474
10.1125
-24.9285
-1.11097
-31.4078
-3.24291
9.97318
-30.3222
11.881
0.0102037
-2.3479
0.957253
57.773
-32.8712
-30.2065
21.2061
3.94291
-10.4145
-26.2312
-3.24635
-42.368
14.9686
-76.5773
-4.51254
63.6018
-12.9433
46.5269
-2.41574
10.1216
-26.145
-40.6375
1.07515
3.4591
11.1353
-3.21635
-53.1712
3.98561
7.90655
-1.29447
0.27768
56.2996
17.0827
-0.41161
-4.68186
-13.4012
-47.8479
2.03188
-15.6476
17.4885
-2.74509
4.2349
-2.97787
-9.29642
-4.97267
34.3177
-0.878757
-31.8653
-2.23394
15.4729
-30.1222
8.52089
10.3555
4.03562
14.2621
-59.1738
-4.67663
-19.8573
-35.8244
-68.4783
-10.713
-41.0222
-35.0389
8.66002
-27.2625
1.33813
-14.3968
7.35112
-33.4882
9.86548
11.5436
-65.6083
-14.8946
-6.746
-40.7736
5.13904
-35.6265
29.0268
1.44309
23.2779
-15.9345
-16.6817
-8.04572
-30.202
33.2347
17.1384
-61.268
0.126547
-41.7473
2.30243
0.199841
-76.3634
-68.2115
29.3099
-11.6284
-17.176
10.1832
-5.61351
5.17765
16.2903
-0.702977
-37.9616
-5.68174
-4.52839
-16.1098
-20.6987
1.9256
21.4849
-9.451
24.6035
9.17769
-8.68869
-3.18098
31.3406
1.78127
-0.427513
48.1948
-7.42034
2.98091
-32.3902
-30.5329
15.9339
14.3324
-12.1041
-7.84579
4.51705
-2.21943
-57.3093
-24.6548
5.92769
4.70656
0.320692
3.25769
1.70771
-2.08566
64.2447
-0.42426
-0.664176
-16.8488
21.6426
-43.4009
-2.48457
20.9375
-42.209
12.7271
-7.29788
-40.2354
2.64408
-0.204799
9.70961
-22.7739
0.0217945
-3.26409
-4.88095
-2.02988
-0.219977
11.7419
7.31884
-9.12658
-1.48021
4.94319
-2.55214
2.34036
2.22856
-2.04272
14.6531
16.6618
-7.01245
26.581
-54.3187
-11.6465
4.67031
9.3908
14.0537
6.25059
-11.9581
38.4709
-44.6157
7.09247
-7.92685
4.99722
-24.3252
-0.861573
-10.2171
-29.6264
12.4561
-9.08997
-8.68547
-25.5064
58.3434
-23.68
52.5202
12.8783
0.752559
-2.24476
8.68761
-41.8135
-10.1003
45.7731
-8.10039
16.8298
3.6749
-3.25478
11.6385
6.63556
15.5031
-35.2163
8.96953
-3.1237
-30.2171
-3.12752
4.17785
-72.3696
9.13984
-2.11052
5.78291
6.79794
42.4117
-1.72421
-18.6117
2.17192
-35.5073
-2.85459
-3.58615
-12.2631
-2.53031
5.38938
2.64882
-21.6154
0.639394
-12.7511
9.16681
38.5318
6.27428
32.2303
18.6544
-1.43288
7.75502
-2.78099
-0.376513
-23.3418
-28.0559
44.7886
-25.5045
1.07588
32.0206
-1.97392
-1.16363
-29.8828
2.05512
-27.0626
-32.0663
47.3705
9.20055
20.4357
-1.01327
7.69498
20.7144
-13.153
12.1534
-5.77765
-9.37235
2.12629
-0.134377
-1.89901
0.144871
17.7061
-25.2127
-4.26285
-39.0803
-63.2614
-14.509
-39.9882
-0.112185
5.62874
2.83702
-1.90593
-42.1473
-9.53587
21.3265
-0.495565
44.8731
15.0987
-1.82925
3.80871
-0.349881
-15.4282
-4.57956
10.9963
-0.497809
-38.5537
-47.6913
50.0174
48.5818
6.37135
-0.634478
-3.4273
28.2588
-116.512
11.4085
0.331891
11.2311
3.10783
-12.2559
13.7723
-32.7966
17.3381
8.43801
2.56287
6.19541
-4.94035
7.13238
-19.5281
-0.640766
21.892
-41.2996
-20.8081
12.1492
-4.21435
10.7597
-8.59843
-3.34331
62.8411
-24.3516
-31.5635
6.70426
-0.966004
-21.8602
34.0092
-54.0892
15.4792
-50.46
-46.8025
-37.1504
-8.22005
-2.94217
5.149
-41.8107
13.788
15.29
-12.4104
-0.670188
29.938
0.969275
0.805406
-31.4662
-31.0399
-0.311437
-81.2739
-22.607
6.79814
0.0240242
5.49861
0.370452
2.8041
12.8925
4.15785
-38.0799
-12.4298
-3.97291
-12.0323
4.32701
35.962
-26.4392
15.2337
-29.9871
-0.819643
14.8893
-35.3615
-5.28342
48.777
-33.1614
-37.6257
-47.8685
-1.68361
17.5164
-46.8012
3.69434
-105.892
0.125356
12.2634
-5.5461
5.89883
-2.89196
10.7603
-13.6564
10.1485
15.3449
-2.71545
-49.1373
3.04699
-0.741155
-0.072739
2.60797
7.98291
-4.29224
0.0380638
-0.575152
1.90532
-4.44599
30.5621
-62.5138
-6.95563
-2.67475
-0.429861
25.6236
-16.0892
-1.41847
38.9401
-24.6702
62.1221
-7.29937
57.837
-73.1587
-25.0263
30.0969
21.8234
-48.3149
34.2726
-20.6649
-35.0168
56.4749
-9.00996
12.5292
-32.7057
-9.06472
-11.8536
-33.4411
10.5385
-8.57728
7.4418
-21.1676
-25.6449
2.40188
-8.30393
-7.63409
5.34461
1.6238
0.890299
31.6623
29.4027
17.8215
14.4688
-15.0708
1.76839
-0.435299
-29.6547
-4.89962
7.57933
8.16821
-4.75603
11.7181
-49.6418
62.518
-0.994061
-1.05667
2.44972
12.6356
-5.87754
-8.32891
2.3183
39.1088
0.314479
-25.1588
6.36046
2.23102
-55.8659
-12.9181
13.4928
-1.12159
1.35761
-42.1587
-24.786
-0.221691
7.9408
8.29579
-2.10742
-33.3699
-42.5323
-4.9933
17.4271
-2.54462
4.09039
-0.241166
-46.5959
-26.2302
38.5699
-60.5261
-7.83509
27.8266
-29.9219
1.78204
6.65563
-54.3306
-33.0846
-0.9467
7.75661
33.2695
9.84166
5.82769
-0.952487
-30.0012
-50.774
-1.9761
35.1381
-0.146765
7.01499
-8.82486
-1.03765
-6.752
-25.4757
-18.1424
9.82878
-11.616
-26.7822
16.187
14.1822
-15.2713
15.1261
-0.136154
-16.2121
34.5231
0.125497
0.520243
0.281127
-13.2262
-1.95653
1.17416
2.06616
-21.9639
-39.4051
-2.41567
10.4501
0.917183
0.149586
10.1607
-15.3724
20.7192
-72.8213
-15.0686
35.5869
15.9117
-1.09126
-0.0439181
43.2775
-46.0735
-72.7302
12.1417
-41.544
1.93169
1.02428
0.713216
-9.93415
5.94452
-1.9027
49.4206
-4.96765
-14.766
7.18643
1.85155
7.57947
11.6979
-38.5581
-13.5388
2.75969
54.3357
1.91237
19.4182
-3.26511
-12.4796
15.3641
12.2039
-20.5426
7.29023
16.6438
-0.511033
-14.3444
-14.3333
-4.04872
1.93983
-3.09795
-33.5965
-30.7499
-0.485792
-5.1394
57.5205
12.0168
-37.1698
-10.1948
-39.1205
-61.2139
-1.98591
21.3095
3.47991
-33.7343
8.09809
10.455
0.207397
-6.7457
-39.1721
4.54895
-3.59365
12.6011
0.845879
-21.039
-72.3813
3.08201
13.2643
-13.217
5.38269
-4.97619
7.42004
42.6557
9.1289
-30.8317
12.6463
-2.62191
-16.4104
7.83654
-71.5772
-25.4748
-25.1101
10.8983
-2.61243
19.3478
-40.0131
11.8204
-29.4522
-58.7044
-6.95898
52.0731
3.91495
3.3653
21.3189
8.21723
-41.4633
15.7771
-2.27507
6.14946
-63.5648
2.11918
-47.3262
-7.31872
42.4835
18.4405
10.9599
-11.8769
-65.4027
-14.4189
-16.4735
3.94862
0.836238
51.0885
-30.759
9.72294
-7.25767
17.4303
-3.64845
-21.8175
14.6415
9.71812
-5.08991
-2.17595
-1.24986
59.6242
-15.9945
7.16338
-1.95463
10.2294
-11.0193
43.5245
-3.14191
-29.4418
-14.267
49.4774
12.3937
-2.81408
-20.8604
-10.459
-3.42432
-4.57203
-24.8044
1.38032
9.06062
6.84282
-0.935777
-0.26048
45.9284
15.763
40.8282
21.5031
21.586
-41.2138
-30.8725
-0.403068
-3.19742
-45.099
15.0752
-27.7609
5.31462
-24.9235
-16.7168
5.15661
-0.572292
-54.3966
3.02121
-12.1929
-26.9379
-29.7959
0.860521
-0.690902
-38.2082
-10.413
1.3839
10.7209
-5.53096
-0.338955
-11.8069
-11.7571
-11.7616
-17.5711
31.9784
-10.7857
-3.81599
-10.6241
14.904
-33.4145
0.577949
-6.27231
3.07596
-4.20852
7.11037
1.50602
42.167
-24.6804
15.0732
-46.5671
0.646604
-4.73343
-3.24343
-7.96461
-32.9394
-5.33811
-20.339
-33.786
-36.5814
-36.9902
0.108797
-7.71567
-13.9917
-32.0328
-6.35248
-30.3008
-0.656667
12.7668
14.5899
9.08149
20.4671
-36.2609
-40.0719
-21.3361
-3.32004
48.1895
-72.9683
-34.974
-3.02389
-35.1137
25.6553
18.5693
6.44633
14.7644
-41.3938
-5.59232
10.7287
-10.5707
11.38
-38.921
-8.60204
-9.48543
-10.5779
-8.67121
-0.480148
-33.6331
8.96959
-0.424133
-14.9888
-8.22514
34.2912
7.57157
-5.40378
-33.03
-15.5797
26.1865
-66.6484
2.27681
-66.3121
-0.672623
-76.3315
-2.6014
-1.71282
35.3575
-5.40417
-62.0927
8.09953
7.11801
23.9864
8.969
-6.91149
7.11292
-35.8117
-0.653933
-2.79689
0.818437
-17.2633
15.2362
-3.53117
14.5647
-1.50192
0.108008
6.86248
-13.1909
8.23138
8.12709
-29.5517
-46.5739
8.77544
23.9375
8.25761
-12.2986
-0.627247
-44.927
4.18662
-2.38073
4.26367
-2.56573
18.596
20.5084
23.9074
3.24966
2.6245
9.14002
-35.9391
-11.8507
-40.5279
-31.9728
-26.74
-31.4065
7.04535
12.9889
6.32537
-12.5513
0.442055
-1.81359
-1.78112
9.58069
-1.35345
-48.6844
5.63408
-11.1226
-3.99828
1.69669
10.7615
11.8424
10.8439
4.33587
-38.6292
-35.6897
-2.72384
-72.6885
25.3084
-5.73315
-7.78453
9.19739
-2.51605
9.94216
23.0009
-13.5366
-41.0728
11.2848
9.01765
-49.9255
-61.2638
9.54156
-0.604562
-10.5682
-8.46344
11.5682
-27.2128
20.9452
-2.71018
3.41518
-6.47565
-21.3056
29.0245
34.3571
-94.337
-22.4153
-19.3816
48.4403
11.589
-0.233141
26.9953
-68.4864
35.0323
-61.3672
29.4309
-3.06851
0.197305
7.2743
-30.8029
-1.60972
18.4492
-67.3839
7.13279
-6.47103
-5.71642
3.8124
-45.8832
-31.6674
-0.8828
-3.76069
0.223593
-41.7908
-72.4385
-1.87671
-0.737835
-5.20725
-35.8429
-2.71414
20.2701
1.2089
-26.4441
-20.5559
22.0449
-57.4654
11.291
7.08192
4.83423
7.33216
-32.1562
15.5079
-0.344135
-37.4278
21.7545
-9.6952
7.48289
-2.85668
11.0058
-8.48571
-50.3032
-7.53505
-2.74808
-51.2259
-6.9908
-96.109
-6.13987
-20.287
36.0845
8.39501
-1.751
-2.97542
17.7439
-59.4326
-0.937981
-16.3623
-16.7514
-8.88246
0.317062
10.8562
11.0375
-14.8047
-2.20999
0.222439
1.61537
36.5366
-39.7934
-39.275
-11.5047
-12.6859
-36.4048
-2.53358
-59.8726
-13.4478
1.47197
-27.6474
-25.6864
-2.20018
-5.16957
10.3341
-30.8224
10.9504
-21.4262
-24.1805
-33.3671
5.88524
0.764715
15.0899
8.55198
4.01328
49.5111
-5.26579
6.22617
-6.84132
-0.771165
9.84695
20.1147
5.95822
-16.9307
-35.7819
-31.3752
1.40891
22.4736
-1.66363
0.483104
6.97458
-7.00456
10.2799
-24.5168
-0.00596159
4.6015
12.3672
0.981814
-16.9516
-3.37736
-56.2558
-15.3427
-13.5544
-1.13302
0.163544
3.2159
-72.3722
-5.95182
-25.2011
-35.6328
-1.38484
2.27552
10.7856
-4.76384
0.199563
24.0486
-1.50477
11.1358
0.0769133
-0.187544
-38.7538
-4.72203
-4.9165
-9.65599
-14.1306
-17.7906
-15.029
-8.57707
-0.224775
16.741
-14.6904
0.0429006
-28.4341
-30.2078
-0.117114
-19.0127
-13.8691
-6.77905
29.2543
40.9769
-30.7061
-29.7355
-9.77858
-7.81037
-9.46103
7.29635
-3.96628
-25.4938
-18.9502
-6.07811
-20.9078
15.7999
-33.6212
-10.5076
-47.8114
3.17087
8.65668
18.1954
-78.1535
-0.264574
-8.39716
-1.7909
0.884821
-11.7183
10.4156
4.3579
-18.5591
-75.1738
10.1014
-6.82981
-2.41613
-8.57818
8.30349
-2.39879
29.492
10.494
-28.0819
3.69891
37.8589
1.58768
-2.51937
-5.54813
-40.6444
31.1587
8.28721
9.16061
-23.1534
11.0691
38.0102
4.08798
16.7177
3.22431
-36.166
25.581
11.8381
3.71386
-51.2009
-32.1979
3.16957
1.57625
9.61993
-54.2756
0.00445219
-60.9367
0.724547
-0.0546704
5.30156
9.84337
-4.9003
-73.9621
9.85035
-37.545
-2.98007
8.94869
-25.9302
-1.02697
-31.5533
2.54773
-0.738147
-39.1087
25.0771
13.4103
-4.41101
44.4218
-1.94844
-34.1498
-8.40845
-29.3919
-0.0757738
13.6945
0.940908
-2.21128
15.0965
-0.618672
10.5198
2.73229
-9.70565
-28.317
-69.1317
-0.620558
41.9059
-12.039
-32.0181
-5.99338
-0.483178
12.2487
9.9192
-30.9423
-18.2149
-2.8094
45.6723
-44.7296
18.1702
-13.4793
-5.84203
7.32255
-7.32219
-0.842856
24.0652
4.23994
-0.678979
10.4283
6.85654
-9.17543
4.43636
9.95522
-52.4645
-0.000101207
-2.18707
-19.0596
-30.2558
7.14833
-41.9949
-27.6685
-0.998857
-32.5552
18.6596
-13.4178
-18.3686
-10.2035
6.27227
10.8435
4.51163
-0.149322
8.11034
-12.3471
-5.57755
5.69086
-1.54812
-2.84041
14.751
-30.583
-49.7691
23.1112
-0.765941
2.99593
17.3573
-8.56725
-17.6559
-6.0184
-27.9575
9.59078
-0.00494954
15.0622
61.8647
-24.8114
-11.6921
0.704325
11.6244
6.6114
0.871527
-2.5487
-12.9845
-4.12893
-49.0653
-67.1
7.02855
26.0193
26.5011
2.62608
4.60046
-57.8458
10.8985
54.4584
-50.5704
-48.2899
-5.27677
-34.8858
0.978686
13.8925
2.19251
32.2269
-20.1701
8.36447
-27.0369
12.4033
-42.8107
-1.8104
37.6526
-34.8479
4.28343
-42.5316
-43.5296
-6.88857
-1.2422
3.91568
3.68345
-40.7476
-17.0581
11.5058
-0.534617
-28.287
-11.6677
2.26762
-32.7252
10.002
31.1349
-23.5723
-15.1976
4.83158
9.53904
59.7296
-5.03517
20.7746
10.1873
38.9197
12.4039
-35.19
-30.1775
1.39776
-4.11944
1.43702
-0.881452
11.3465
0.121706
-41.1227
-1.04088
0.435153
-9.03641
-0.304695
-5.69102
-28.5744
-1.00314
0.836337
-22.5173
-11.1405
6.55684
0.365115
11.5631
-28.735
1.39864
9.58244
-8.48045
-2.66877
-3.33677
-0.721402
-8.57507
-9.39309
-9.13169
-38.2579
-1.03385
-17.754
-52.5692
-45.8971
-19.0995
6.86335
-2.16078
-4.2162
-28.0317
12.9407
2.31538
5.28761
44.4024
-0.387884
19.7843
-6.60573
4.32165
8.83744
-19.8491
-21.8959
24.6123
-16.0919
-11.5665
13.899
-14.5461
-35.6569
13.2796
-78.5068
-3.98664
10.9918
-5.67465
-3.98526
1.19573
-51.9326
-21.4731
-42.5902
3.77228
-1.79996
7.22253
-12.5507
-63.4457
-18.4617
28.7361
-34.8058
1.12388
-13.4142
-7.04395
-30.9417
-0.515268
0.885107
-48.9171
-43.676
10.1694
8.84815
4.27459
-10.9372
3.65544
-36.6015
29.8564
-56.5448
15.8039
-13.5379