/*--------------------------------*- C++ -*----------------------------------*\
  =========                 |
  \\      /  F ield         | OpenFOAM: The Open Source CFD Toolbox
   \\    /   O peration     | Website:  https://openfoam.org
    \\  /    A nd           | Version:  7
     \\/     M anipulation  |
\*---------------------------------------------------------------------------*/
FoamFile
{
    version     2.0;
    format      ascii;
    class       surfaceScalarField;
    location    "100";
    object      phi;
}
// * * * * * * * * * * * * * * * * * * * * * * * * * * * * * * * * * * * * * //

dimensions      [0 3 -1 0 0 0 0];

internalField   nonuniform List<scalar> 
22555
(
0.0217245
-0.0673046
0.0944727
-0.048872
0.00535029
0.00994289
-0.00570638
-0.00958838
-0.0234314
-0.00306305
0.0237317
0.00276294
0.00364766
-0.0139087
-0.004477
0.0147363
0.0591837
-0.164033
0.0363765
0.0684731
0.00951042
0.00600445
-0.0101677
0.0715402
0.0360304
-0.0749468
-0.0326239
0.0772767
-0.0626073
-0.0451594
0.030493
0.0328237
-0.114671
0.0914766
-0.00962583
-0.0103309
-0.017387
0.0206455
0.00707252
0.0500315
-0.0752022
0.0837549
-0.0585847
-0.0281852
6.87326e-05
-0.0064846
0.0346012
0.00493028
-0.0493914
0.011008
0.0334524
-0.165422
0.133547
0.032851
-0.000976413
-0.122918
-0.023436
0.111082
0.0352684
0.0136613
-0.00406067
-0.0135502
0.00394853
0.0678984
-0.0567712
-0.0332356
0.0221107
-0.0843719
0.0566638
0.0545895
-0.0268809
-0.0268869
0.0200367
0.0682358
-0.0613859
-0.031317
-0.0721127
0.033033
0.0703967
0.00489936
-0.00517087
0.00520338
-0.00492579
-0.118679
0.141571
0.121833
-0.144726
-0.0079357
0.00782513
0.0245516
-0.0244411
-0.00212723
0.00104687
-0.000940511
0.00202249
-0.0460446
-0.0860898
0.0173016
0.114832
0.0548252
0.064021
-0.0511542
-0.0676944
0.0061507
0.00071796
-0.00723024
0.000352479
-0.0778033
0.0164142
0.0137992
0.0475899
-0.063926
0.0627193
0.0890579
-0.0878513
-0.0506508
-0.0830048
0.0606822
0.0729733
-0.0678807
0.059497
-0.0036642
0.0120477
0.11547
-0.0972356
0.0847526
-0.102987
-0.0938178
-0.0855286
0.0943027
0.0850429
0.00292921
0.0837069
-0.0805608
-0.00607535
0.00521084
-0.00400113
-0.00568728
0.00447764
0.180433
-0.0446419
-0.148334
0.0125435
0.107747
-0.136231
-0.0693443
0.097828
0.06236
-0.0309309
-0.133685
0.102258
0.0883122
-0.0441379
-0.111445
0.0672736
-0.0436777
0.0564895
0.0216078
-0.0344196
-0.042374
-0.0486599
0.0571865
0.0338489
0.11609
-0.112842
-0.00546725
0.00221902
-0.0997855
0.138855
-0.0403007
0.00123076
-0.00707953
-0.019111
0.0175321
0.00865844
0.0696761
-0.0597909
0.0483889
-0.0582742
-0.0516395
-0.0601494
0.0756537
0.0361366
0.0193491
-0.102323
0.0584736
0.0244996
0.0434326
-0.0443404
0.0478007
-0.0468597
-0.0108853
0.0119221
-0.00095395
-8.41203e-05
0.0414672
0.17125
-0.116647
-0.0960702
-0.00467343
-0.0129622
0.0108014
0.00683568
0.0817017
0.0403107
-0.0735853
-0.0484276
-0.00645459
0.00696307
0.0182867
-0.0187952
-0.074188
0.00264078
0.0767239
-0.00518248
0.0297285
-0.0619573
0.0536567
-0.0214281
0.0598261
0.0520389
-0.0589354
-0.0529296
-0.0134488
0.0137374
0.0207344
-0.021023
-0.00238248
0.00713356
-0.00871823
0.00396508
0.156677
-0.0926629
-0.022547
0.0267374
-0.0115131
0.00814529
-0.0233694
-0.0125037
0.0477035
-0.0302281
-0.00497192
0.0635341
0.060206
-0.0703161
-0.0534251
0.171512
-0.0141951
-0.021966
-0.135352
-0.00165538
-0.00188651
0.00192424
0.00162226
0.0534029
0.0676531
-0.0709291
-0.0501156
-0.160343
0.103262
-0.0064875
0.0635677
-0.0290522
0.0926601
-0.0515661
-0.0120415
0.00115174
-0.00668391
0.000355253
0.00516856
0.000813048
-0.00483665
-0.0237857
0.0278094
0.00594209
0.00185812
-0.00545477
-0.0023412
0.0588272
0.0889919
-0.042757
-0.105062
0.130825
-0.0508337
-0.0795107
-0.000482407
0.0696706
-0.1126
0.102103
-0.059173
0.0302639
-0.0281179
0.0983098
-0.100456
0.0247694
0.0481856
-0.0113227
-0.0616321
-0.053619
0.144624
-0.119278
0.0282726
-0.0163283
-0.00593259
0.00641435
0.015848
-0.0673695
0.011115
0.0566418
-0.000387367
0.0412592
0.146763
-0.123396
-0.064626
-0.0349043
0.0194592
-0.00417018
0.0196155
0.0229083
0.0163604
-0.0176587
-0.0215995
-0.00250234
0.0146795
-0.0139675
0.00179045
-0.00541576
0.00591207
-0.000496051
0.0192665
-0.0223176
-0.0265459
0.0295972
-0.0270106
0.0177595
-0.0266389
0.0358892
-0.0308886
0.010586
-0.000330951
0.0206336
0.133193
-0.141599
-0.00815037
0.1408
-0.00581488
-0.0845576
-0.0504261
0.02307
0.0347093
-0.0192959
-0.0384835
-0.0225003
-0.0400221
0.0342293
0.0282938
0.0966392
-0.0583109
0.100042
-0.138371
-0.0379759
0.0420178
-0.0444141
0.0403721
-0.00342982
0.0082951
-0.00984273
0.00497682
-0.0227094
-0.0268214
0.034335
0.0151958
-0.117585
0.000673459
0.0640639
0.052847
-0.0280932
-0.0432399
0.06461
0.00672132
0.0472138
0.0626635
-0.0618412
-0.0480336
0.0170937
-0.0170321
0.0414846
-0.0415227
-0.00393625
0.00522753
0.00774881
-0.00903728
0.0565646
-0.10661
-0.074161
0.124206
-0.118948
0.0389048
0.0945022
-0.0144592
0.0268443
0.0279078
-0.0265949
-0.0281574
-0.00702336
-0.0227135
-0.0727015
0.102438
-0.138177
0.00615903
-0.0168783
0.148896
0.0415171
-0.0473045
-0.068723
0.0745104
-0.00621849
0.000968415
-0.000560829
0.00581097
0.00296415
-0.00534902
0.006509
-0.00412372
-0.0851537
-0.0431543
0.0852249
0.043083
0.122388
-0.103825
-0.00719177
-0.0113716
-0.0533787
0.00146124
-0.0038615
0.0557789
-0.0045391
-0.0694361
-0.000206825
0.074182
0.00860381
-0.0575701
0.00510647
0.0438596
0.0296017
-0.0370338
-0.00614018
0.0135722
0.0877326
0.0490592
-0.0487796
-0.0880121
0.0350948
0.0143668
-0.0252184
-0.0242045
-0.00888261
0.0118125
-0.10064
0.0977098
-0.0505664
-0.00897548
0.00759196
0.0519487
0.102322
-0.0500901
-0.10471
0.0524779
0.0427995
-0.0812487
-0.126973
-0.0175585
-0.0133101
0.0162686
0.0146167
0.00797425
-0.0251956
-0.00140283
0.0186443
-0.061447
0.0308828
0.0576855
-0.0271198
-0.0352876
-0.0590169
0.0363044
0.0580002
0.0834973
-0.10535
-0.00594977
0.0278021
0.0238962
-0.0353859
0.00932025
0.00216933
0.0281652
0.0153709
-0.108871
0.0653353
0.115764
0.0296326
-0.0964476
-0.0489497
0.0395844
-0.0614377
-0.0358131
0.0576684
0.02202
-0.048336
0.0457248
-0.0194086
-0.0349119
0.00123156
-0.0032869
0.0369679
0.0581209
0.0609988
-0.0605171
-0.0585984
0.0380047
0.0348559
-0.0522087
-0.0206521
0.00180078
0.00136804
-0.00205443
-0.00111686
0.0612883
-0.0417821
-0.00638951
-0.0131176
0.0700174
-0.0516091
-0.00579552
-0.012613
0.113253
-0.106377
0.0578735
-0.0647501
-0.0645651
-0.0484143
0.0383685
0.0746107
0.0181766
-0.024753
0.0163134
-0.00973701
-0.00168502
0.00549225
0.0049178
-0.00872487
0.0280215
-0.0220153
-0.0911599
-0.10159
-0.00720888
-0.00123498
0.110029
-0.00425644
0.0777804
-0.127143
0.00918343
0.00481411
-0.00909149
0.00608981
0.02667
-0.0357099
0.00294974
0.0207531
0.123702
-0.10196
-0.042495
0.0250139
-0.0765196
0.0670598
-0.0155498
-0.00330934
-0.0115199
0.0126399
0.00218532
-0.0219089
0.0478268
-0.0583704
0.0324525
-0.0257632
-0.0878311
0.086734
0.0268602
0.046326
-0.0145789
0.00247617
-0.0342251
0.0878351
-0.0879508
0.0503947
-0.0502791
-0.0355758
0.00302415
0.0216782
0.0108734
0.0867569
0.0136848
-0.0309176
-0.0695248
-0.00286228
0.0133295
-0.0112596
0.000792794
0.0481942
-0.0699671
-0.0392143
0.0609869
-0.129123
-0.0255803
-0.004764
0.159467
0.0435524
-0.0934868
0.100486
-0.0505441
0.0367266
-0.0409893
-0.110926
0.115191
0.0371387
-0.0397125
0.0453121
-0.042694
-0.0851967
0.0637958
-0.0472229
0.0686239
-0.120873
0.0983531
0.028712
-0.00619143
0.00452968
-0.131696
-0.0110108
-0.00366137
0.00756003
0.0420829
-0.0459813
0.0257877
0.142774
-0.0530918
-0.00206254
0.00250049
0.00131372
-0.00175113
0.0537318
-0.0408587
0.0459003
-0.0587743
-0.0338163
0.0178821
-0.0510285
0.0669629
0.014944
-0.0156052
0.00411586
-0.00345281
0.122549
0.0631231
0.0113788
-0.197051
-0.15015
0.0119666
0.13097
0.00721336
0.00798365
0.00581056
-0.00764884
-0.0375865
-0.136672
0.107253
0.0670057
-0.0104559
0.0175785
0.0270895
-0.0342168
0.00151157
0.0489875
-0.0568391
0.00633945
-0.0252251
0.0617482
-0.0881009
0.0515887
-0.00271606
0.0380304
-0.0118957
-0.0234188
0.0259409
-0.0345034
0.0432304
-0.0346676
-0.0158422
0.0119977
0.010433
-0.00657485
-0.00506239
0.00258652
0.0321378
-0.029661
-0.0851747
-0.0389221
0.00828819
0.115808
0.0286987
-0.0159183
0.00648612
-0.0311316
0.0701361
-0.0697609
0.0307562
0.0382939
-0.0174096
-0.0260226
0.00513821
-0.0296375
-0.0481059
0.0799807
-0.00223247
-0.00430066
0.0035365
0.00190106
-0.00113621
-0.00329688
0.00101786
0.0473814
-0.0451051
-0.00915063
0.0306667
-0.00656164
-0.0149546
-0.00252674
-0.00679973
-0.0255848
-0.0249155
-0.0293799
0.0231327
0.0311627
-0.00734781
0.00992608
-0.013953
0.0113738
0.127572
-0.0339451
-0.140577
0.0469506
-0.131507
0.0203342
0.0866399
0.0245332
0.0349873
-0.0391386
-0.0204182
0.0245694
-0.113323
0.10802
-0.0155518
0.0208549
0.0942883
-0.046024
-0.0370767
-0.011187
0.015195
-0.0219379
-0.0849731
0.0917145
0.00275448
-0.00393292
0.00232369
0.00278364
0.0716564
0.0138142
-0.0882543
-0.0163996
0.0391353
-0.0356598
0.0129249
-0.0383933
0.0605758
0.0206416
-0.0428232
0.0524335
0.0154212
-0.0926384
0.0247835
-0.0062767
-0.0409179
-0.00618418
-0.00132882
0.0718185
-0.00633586
-0.064154
0.0254285
-0.0413606
0.0075131
0.00840711
0.0115034
0.0863758
-0.0876622
-0.010217
-0.0934897
-0.0716798
0.114247
0.0509226
-0.0503362
-0.108223
0.0591311
0.0994277
-0.00578839
0.101012
-0.00283744
-0.0923828
0.0503081
-0.062787
0.0609084
-0.0484294
0.000604278
-0.0486755
0.0288448
0.0192264
0.0139259
0.0417016
-0.0347865
-0.0208417
-0.0786393
0.0570731
-0.10023
0.121796
0.0870723
0.0558591
-0.122973
-0.0199576
-0.0579646
-0.0723573
0.0690771
0.0612447
-0.0685514
-0.0869625
0.0558138
0.0996999
0.0892809
0.013159
-0.0402343
-0.0622156
-0.0607714
0.0846478
0.0608815
-0.0847581
0.0334773
0.0681899
-0.0330168
-0.0686504
0.119182
-0.0563374
-0.0886897
0.0258449
-0.00292391
0.00285244
0.0137294
-0.0278
0.0433967
-0.0452338
-0.0403102
0.0543376
0.0337726
-0.0478
0.00083882
-0.00609707
0.00638114
-0.00112272
0.00277747
-0.00123018
-0.00154612
-0.0577657
-0.05394
0.0278852
-0.0316845
0.0244897
-0.0206904
0.00269477
-0.00119339
-0.00150696
0.126295
0.00340461
-0.0441158
-0.0855834
-0.0362209
0.0456165
0.0591151
-0.0685108
0.0449524
-0.0453933
0.0450748
-0.0446342
0.00509019
0.0605181
-0.0521691
-0.0134389
-0.0624977
0.0499808
0.0422453
-0.0462539
0.0362214
0.0257125
-0.0156805
0.0417302
0.0743422
-0.105139
-0.0109332
-0.0447979
0.00915445
-0.0161077
0.0517591
-0.00419251
0.00368479
0.00567519
-0.00516594
-0.0618566
0.0370609
0.053935
-0.0291399
-0.0476604
0.0837212
0.0199363
-0.056001
0.011492
0.00359521
0.0552174
-0.0120765
0.00493359
-0.0480743
-0.0593939
0.0781285
-0.11597
-0.0148549
0.0273002
-0.0294013
0.0169558
0.0236063
-0.0259749
-0.0194192
0.0217877
-0.103802
0.134217
0.0272775
-0.0576925
-0.0292532
-0.02057
0.0275057
0.0364176
0.0744589
-0.0901682
-0.0207083
-0.0726245
0.0808588
-0.0339977
-0.0173956
0.0476056
-0.0634432
0.033243
-0.0421632
-0.0404416
0.0927719
-0.0101673
-0.0182953
0.0349517
0.0216376
-0.059863
-0.0415875
0.0447324
0.0567179
-0.0795862
-0.133212
0.161946
0.050853
-0.0317395
0.0127333
0.0384041
-0.0193981
0.0824487
-0.0981268
0.0582868
-0.0426101
0.00319233
0.045081
-0.0126643
-0.0356069
-0.0639924
0.0225648
0.0717266
-0.0302992
-0.0167128
-0.00461543
0.0147848
0.00653866
0.0851251
0.0474798
-0.0708993
-0.0617055
0.00768433
0.0210676
-0.0583217
0.0295698
0.0761451
-0.0745171
-0.000489019
-0.00113895
-0.0617598
0.0492439
-0.0108849
0.0234012
-0.0136392
0.079882
0.0657426
-0.131986
-0.0585123
0.0049414
0.00268322
0.0508821
-0.0142401
-0.0852245
0.0790301
0.0204346
0.00420632
-0.0212925
0.0141342
0.00295201
0.033626
-0.0618082
0.0392306
-0.0110476
0.0446233
0.0656528
-0.0661629
-0.0441088
0.000973391
-0.000618803
0.00392589
-0.00428691
-0.000824629
-0.00714872
0.00797377
-0.0626905
0.0663317
-0.0255702
0.0219284
-0.000514903
-0.00109004
0.00160434
-0.0701827
0.0895265
-0.0379659
0.018624
-0.0174631
0.0135838
-0.0344616
0.0383408
-0.00968815
-0.111888
0.0481438
0.0734307
-0.0135827
0.108066
-0.00699496
-0.0874878
0.00190569
0.00567129
-0.00163062
-0.0720044
-0.0120362
0.0642498
0.0197906
-0.0645582
0.0957951
-0.0970534
0.0658164
0.0470851
-0.049577
-0.0444331
0.0469246
0.0463999
-0.0789415
0.14021
-0.107667
-0.0674375
-0.0687457
-0.00551209
0.141695
-0.026345
-0.0420443
0.0374015
0.0309877
0.0187328
0.0683831
-0.0675095
-0.0196065
0.0165736
0.0583542
0.00517864
-0.0801069
-0.00358318
-0.0174695
-0.0268536
0.0479087
0.13561
-0.113826
0.0199463
-0.00661823
-0.00405289
0.00637358
9.2933e-05
0.00370902
-0.00379976
0.0862163
0.0677363
-0.147305
-0.00664799
0.0171393
-0.07764
0.00198447
-0.0170167
0.0189511
-0.0215252
0.0195889
-0.0781136
0.0718992
-0.0485611
0.0547754
0.00617991
-0.00443849
0.00337138
-0.00512343
-0.114088
0.108
-0.0442486
-0.00288709
-0.000375288
0.0824359
-0.0841732
-0.0497219
0.0514592
0.0235142
-0.0250982
-0.0178862
0.0194733
-0.106596
0.10959
0.0275769
0.00719616
-0.0420125
0.0399705
-0.00515452
0.00574125
-0.00739795
0.00602937
-0.00437236
0.0671035
0.0800621
-0.0393279
-0.107838
0.0390711
-0.0280205
-0.0462682
0.0352156
-0.00360936
0.00905008
-0.000229888
0.063017
-0.0556443
-0.0550326
0.161403
-0.149414
0.00356473
-0.015554
0.0807847
0.0540905
-0.0713945
-0.0634735
0.0142046
0.00187035
-0.0120254
-0.0040496
-0.0317969
0.131005
0.0574683
0.125218
0.0158166
0.00128555
0.0632123
-0.0528131
-0.0906597
0.0802601
-0.0294466
0.0228156
0.00814737
-0.00151664
-0.120369
0.0405062
0.121122
-0.00887551
-0.0204548
0.0184558
0.0108565
0.00476741
-0.0430901
0.0348135
0.00350726
-0.0288876
-0.127627
0.0159558
0.140559
-0.0340264
-0.00121686
-0.0328731
0.0681159
-0.00346153
0.00316023
0.00017345
0.000126588
-0.0531481
0.0519985
0.0397358
-0.0385868
0.00378604
-0.0322142
-0.0228945
0.051323
0.0409233
0.0163389
-0.0493862
-0.00787488
-0.0480561
0.0167288
0.0676122
-0.0362852
0.00796371
-0.0060549
-0.00986956
0.00795838
0.0947502
-0.125554
-0.0630143
0.0918503
0.0232783
-0.110869
-0.00425944
0.0686108
-0.0418417
0.0256643
0.0425725
-0.0515419
-0.0247487
0.0337226
-0.0788351
0.010726
0.00842226
0.059686
-0.0383397
-0.0120782
0.0259439
0.0244738
-0.0250493
0.0339898
0.0189446
-0.0897908
0.115201
-0.0395805
0.0141703
0.0451256
-0.0511477
0.00610746
-7.7684e-05
0.0567368
-0.104604
8.37544e-05
0.0234636
0.00753433
-0.0310816
0.0552058
0.0153765
-0.0545873
-0.0159935
-0.0798988
0.0203473
0.0782792
-0.0187307
-0.0453955
0.037745
0.0324202
-0.043963
0.0182424
0.155071
-0.129351
-0.00375955
0.00199358
-5.71643e-05
0.00182536
0.0543709
0.0285487
-0.0533556
-0.0295639
0.0448926
-0.0362367
-0.0196524
0.0109967
-0.00627484
0.0136798
-0.0144423
0.0070363
0.0321561
-0.0180736
0.0494467
0.0200349
0.045381
-0.075487
0.010071
0.0265806
-0.0289821
-0.106988
0.109393
0.00497308
0.00233878
-0.136435
-0.021714
0.144374
-0.077626
-0.0450349
0.0916158
-0.0812322
0.0878977
-0.0982796
0.0723688
-0.0394471
-0.0681102
0.035188
0.0145124
0.0225157
-0.0202835
-0.0167447
0.119776
-0.0629908
0.0919072
-0.0101265
-0.0152745
0.00725258
0.0181486
-0.0683128
-0.011061
0.0150036
0.0643698
0.0592838
-0.0115295
-0.0402691
-0.00748526
0.0275997
-0.0262426
0.0152742
-0.0166312
-0.0321458
-0.0499552
0.0282765
0.0538243
-0.0482315
0.0568398
-0.0334453
0.0248386
0.00560182
-0.00736196
-0.0215994
0.0233596
0.0130173
0.0428421
0.00689753
-0.062757
0.0391991
0.116012
-0.0710069
-0.0842
-0.0466843
-0.0549467
0.0513091
0.0503219
0.00944534
-0.0986367
0.0137779
0.0754152
-0.0407695
0.104304
0.0217735
-0.0853082
0.0274788
0.0460913
-0.0303311
-0.0432393
-0.104986
0.102528
0.0713529
-0.068895
-0.123778
-0.0449786
0.139869
0.00286085
-0.00347882
-0.00154171
0.00215983
0.0474554
-0.0347356
-0.0407133
0.0279943
-0.0143585
0.00697968
-0.00585141
0.0132302
0.022097
0.0363627
-0.02427
-0.0341897
0.0506146
0.00131874
-0.0983965
0.0464629
-0.0920093
0.041872
-0.00956931
0.0597065
-0.0904244
0.0129214
0.0894196
-0.0119175
0.00956191
-0.00648737
-0.00696257
0.00388705
0.000940047
0.0132897
0.00222234
-0.0164544
-0.0209035
-0.036594
0.0380447
0.019453
-0.000192877
-0.0427124
0.0306788
0.0122265
0.0207369
-0.00687343
0.00764675
-0.0215102
0.0853249
-0.0878447
-0.0388285
0.0413483
-0.040901
0.024198
-0.0275696
0.0442753
-0.0267668
-0.0251534
0.00712615
-0.072992
0.106688
-0.0795755
0.0458792
-0.0736708
0.0405272
0.0613086
0.0918506
0.0416464
-0.0799458
-0.0535521
0.0330983
0.0107291
-0.104319
0.0604921
0.0358498
-0.080404
0.0681398
-0.0235858
0.00896278
-0.00978498
0.0207387
-0.0199165
0.00560342
0.0103413
-0.0117953
-0.00415372
0.0111813
0.0536939
-0.056237
-0.00863831
0.080308
0.0390316
-0.0665673
-0.05277
-0.0561893
0.071686
-0.0555691
0.0400725
0.00755836
-0.00927055
-0.00305114
0.0047633
0.000387302
-0.0010845
-0.00170635
0.002409
-0.0634089
0.0989474
-0.0564263
0.0208877
0.0624073
0.0492446
-0.0613438
0.0384263
0.0819649
-0.0484383
-0.071953
0.0777343
-0.0856458
0.0806748
-0.0727592
0.130245
0.063637
-0.0713911
-0.122491
0.0351335
-0.0227821
0.00568905
-0.0180397
0.0154451
-0.00629825
-0.0286129
0.019466
-0.0686311
0.0175672
-0.0277733
0.0612576
0.0117693
-0.000641475
-0.0723854
-0.120182
0.00161748
0.133835
-0.0152717
-0.0948272
0.11502
0.0622558
0.0110398
-0.0119624
0.00380649
-0.00288667
-0.0730783
-0.0276371
0.000211885
0.100503
0.0823514
-0.0591964
0.0684606
-0.00855549
0.00243664
0.0066663
-0.000547521
-0.0147191
-0.000993433
0.0116006
0.00409451
-0.095676
0.0615214
0.0644559
-0.0302985
-0.0562444
0.100464
0.0562371
-0.100457
-0.0357854
0.0302641
-0.0796534
0.0367612
-0.0297358
-0.0596425
0.0526141
-0.112042
-0.00233371
-0.00942866
0.123804
-0.00690825
0.00832822
0.0106073
-0.0120315
-0.00479306
0.00372854
0.00416168
-0.00309693
-0.00454412
0.00917831
-0.0118827
0.0072472
-0.0309064
0.0159843
-0.0195485
0.0344719
-0.0427727
0.0395789
-0.00298327
0.00617687
0.12442
0.0185839
-0.126671
0.111922
-0.051013
0.0515248
-0.112434
0.0517578
-0.0277446
0.0310627
-0.0550759
0.117957
-0.0154386
-0.0916796
-0.010839
0.0803109
-0.109436
0.114614
-0.0854874
-0.0305101
0.0178614
0.0142732
-0.00162428
0.0288582
-0.0299956
0.0624471
-0.0613098
0.0310383
0.147057
-0.0500502
-0.128045
0.00237586
-0.00323902
0.00279068
-0.00192301
-0.0262473
0.0444761
0.108027
-0.126251
-0.0272941
0.0542026
-0.0493205
0.0224119
-0.127702
-0.0502461
0.057579
-0.0773281
0.103164
-0.107144
0.0813078
0.0704093
0.0996195
-0.0662238
-0.103805
-0.0504045
0.128471
-0.121522
0.0434557
0.00047757
-0.000595612
-0.000312991
0.000421039
-0.0386451
-0.0492582
0.048105
0.0398387
0.0205982
-0.0349096
-0.0894907
0.0462514
-0.0165499
-0.0300562
0.000353283
-0.0735213
-0.0273305
0.0695347
-0.00898213
0.0122133
0.000864072
-0.00409748
0.0125201
-0.0878023
-0.0159764
0.0912576
-0.0420588
0.0532293
-0.00574131
-0.00542912
-0.0757483
0.0801944
-0.0694178
0.0649719
0.123132
-0.0253714
-0.105397
0.00763596
0.0875577
-0.0953944
0.0497824
-0.0419465
0.0483827
-0.0431102
-0.11936
0.00381692
0.00199376
0.0108126
-0.0166232
-0.000140737
8.95411e-05
0.000520916
0.0409893
-0.117785
0.0771023
-0.000307108
-0.00164265
0.00232899
0.00169403
0.0105663
0.00702931
-0.000958873
-0.0166368
0.120552
-0.113989
-0.0321425
-0.037679
0.0473698
-0.0352788
0.0255864
-0.0932535
0.0726702
-0.0308396
0.0514222
-0.016382
0.048024
-0.0463559
0.0147138
-0.0248692
-0.0429363
0.086044
-0.0182403
0.0331109
-0.0109582
0.00973692
-0.0318882
0.0273247
-0.0463243
-0.017135
0.0361237
0.00717963
0.0506378
0.00168023
-0.0594997
0.0619808
-0.0678078
0.0383832
-0.0325561
0.033833
-0.0302249
0.134338
-0.137946
-0.0736959
0.0908965
0.0781588
-0.0953592
-0.024851
0.023999
-0.00230494
0.00315697
-0.0214077
-0.0312476
0.0296609
0.0229929
0.0636018
0.0213903
-0.0417263
-0.0432655
0.00315635
0.0139615
-0.0128388
-0.00428372
0.0183454
0.00777249
-0.00419513
-0.0219227
-0.0612018
-0.101414
0.0693614
-0.0222813
-0.0511864
0.0148284
0.0586378
0.0224416
-0.00277959
0.0487579
-0.0684056
0.0131924
0.0222083
-0.0206607
-0.01474
0.100526
-0.100043
0.0470393
-0.0475171
0.0130938
0.0391297
-0.00129346
-0.05093
0.0116441
0.108317
-0.104591
0.0172813
-0.0723218
0.076774
0.0043021
0.0129199
-0.0137327
-0.0034892
-0.0320096
0.0227229
0.0207998
-0.0115132
0.0507462
-0.0337856
-0.0425349
0.0255726
0.0913544
0.00365414
0.0768269
-0.171836
-0.024362
-0.12399
0.0261199
0.122231
0.0728508
0.0074709
-0.00986276
-0.070441
-0.0449714
0.0654297
-0.0719181
0.0514596
0.00196605
-0.00686093
-0.00132367
-0.00176083
0.000687752
-0.00126407
0.00234
-0.109521
-0.029124
0.109082
0.029563
-0.104116
0.14809
0.0125903
-0.00104592
0.00384255
-5.3305e-05
-0.00274938
0.000621253
-0.0110698
-0.0732075
0.083653
0.0455949
-0.0803188
-0.0139802
0.0487043
-0.0293516
0.1314
-0.15989
0.0578411
-0.0919466
0.00761378
0.0918448
-0.00751204
0.0398986
-0.0446368
0.00454846
0.000187556
0.110557
0.0194173
-0.129246
-0.000725981
-0.0784855
-0.050846
0.0829891
0.0463422
-0.111988
0.152003
-0.0517844
-0.076859
0.0202596
0.0790711
-0.0224712
-0.00351497
0.0398073
-0.00240464
-0.0338876
0.0331062
-0.0275488
-0.0254621
0.0199046
0.139499
-0.0354779
0.0199225
-0.123944
-0.0612042
-0.0542315
0.0427592
0.0726765
0.0750704
-0.0984
0.0923805
-0.0690509
0.146285
-0.0364436
0.00907518
-0.118917
-0.00633783
0.049366
0.044229
-0.0044677
0.00171213
-0.0414738
-0.00269715
-0.0106126
-0.000687884
0.0139998
0.0402758
-0.0401175
-0.0417359
0.0415774
0.0231145
0.113823
-0.100208
-0.00204968
-0.000123707
0.000954136
0.00121902
-0.0320581
0.0583317
-0.135795
0.0248149
-0.03767
0.0180615
-0.00520786
0.089791
0.0990212
-0.0850073
-0.103805
0.0461354
-0.0312452
-0.0832748
0.0683808
0.0346438
-0.0897769
-0.0214854
0.0766156
-0.0105732
-0.0750261
-0.00728187
0.0928808
0.0873984
-0.0585659
0.0587341
-0.0875666
-0.122254
0.133271
0.020022
-0.0168106
0.0864748
-0.0832644
0.0136
0.0105339
0.0510477
-0.0485643
0.0251121
-0.0251796
-0.0197135
0.019781
0.0278431
0.019891
-0.025637
0.0706124
-0.0422128
-0.0637404
0.0353415
-0.0813012
0.044519
0.0402324
-0.00344265
-0.0889646
0.102794
0.0807274
-0.0945571
-0.0150732
-0.0443103
0.0238649
0.0355148
0.100743
0.0480527
-0.046454
-0.102344
-0.0486738
0.0367449
-0.00662312
0.0185521
0.0035367
-0.0887307
0.0853155
-0.000121917
-0.00514116
0.00320017
-0.00845205
0.0103893
-0.101856
0.00135547
-0.00116163
0.101662
0.0078307
0.0254713
0.00389158
-0.0371948
-0.027538
0.0846295
-0.125487
0.068395
0.024966
-0.0625994
-0.0236078
0.0612412
-0.0923271
0.0586771
-0.0185783
0.0522283
-0.0756023
-0.0212138
0.0450487
0.0517675
-0.0892859
0.0714796
-0.0293501
0.0471585
0.132485
-0.0773902
-0.163489
0.108394
-0.0449283
0.0458623
0.0436913
-0.048227
-0.00245842
0.0711558
-0.0204703
-0.167772
0.0478689
0.124877
0.0120867
-0.0198549
-0.0278076
-0.0700109
-0.0153539
-0.00246629
0.0622539
0.141482
-0.106268
-0.0974682
0.00179561
-0.00259969
0.00366401
0.0214192
-0.0171392
0.0244187
-0.0572506
0.00010592
0.0381848
0.0189598
-0.0144866
0.0437148
0.0124826
-0.0417107
0.0819582
0.0744959
-0.109658
-0.0467914
-0.0352319
0.0393153
-0.0186085
0.014525
0.0392446
-0.00981581
0.0238632
-0.0532917
-0.034732
-0.0159469
0.0323836
0.00484205
-0.0110597
-0.00187097
0.00808539
0.0835147
-0.143355
-0.0455834
-0.0350543
0.0284654
0.0521724
-0.015954
0.0342905
-0.0906059
0.0722692
-0.00860738
0.051423
0.0674015
-0.0651294
-0.0536951
0.108975
-0.0916522
0.0523533
0.0103841
-0.0182594
-0.00648318
0.01926
-0.118152
-0.00323842
0.102131
0.0820639
0.0689308
-0.0591443
-0.0464447
0.00302121
0.0147529
0.0287055
-0.102217
0.0782426
-0.033507
0.0574815
-0.0771982
0.113973
-0.061817
0.0250419
0.0327868
-0.130348
0.111491
-0.0139298
0.0572539
0.0351199
-0.0177595
-0.0746182
-0.0810629
-0.00631728
0.0461584
0.0412189
-0.0071407
0.00637087
-0.100851
0.101624
-0.0215468
-0.0154895
0.0171197
0.0199165
-0.00583656
0.0109845
0.0188467
-0.0239894
0.0815438
0.00306184
0.0228011
-0.107408
0.0292094
-0.0246091
0.00940404
-0.0140063
0.0969963
-0.0631952
0.0507782
-0.0845792
0.0384959
-0.0228683
0.0213348
-0.0369623
-0.0637087
0.0270206
-0.0405101
-0.031543
0.0293587
0.000854959
0.00132916
0.0493053
-0.099095
-0.0382038
0.0879933
-0.0337782
-0.0140873
0.0334169
0.0144486
-0.0417016
-0.0452513
0.0196565
-0.0220481
0.00450873
-0.0140036
-0.147374
0.00178703
0.121225
-0.00135699
0.00238406
-0.0588541
0.0578271
0.0128218
0.0126652
-0.00257085
0.0612174
-0.0562574
0.0770003
-0.0393112
0.0183315
0.0410619
-0.020082
-0.00541231
-0.00253128
0.00400917
-0.0445818
0.0500323
-0.0183399
0.0128896
-0.117784
0.0538575
0.098282
-0.034356
-0.0230704
0.0191098
0.0153627
-0.011402
0.121833
0.0439177
-0.0122905
-0.15346
0.00256843
-0.0019937
-0.000583896
0.150355
-0.0289309
-0.0276658
-0.0937583
-0.0735527
0.0583369
-0.00875684
0.023971
0.0508308
-0.0449697
0.0480448
-0.0539053
0.0374105
-0.0267613
-0.0459381
0.00552012
-0.00172501
-0.00846593
0.0154823
0.0210593
-0.0112692
-0.0252551
-0.0627793
-0.0636785
0.0753983
0.0510597
0.0411024
-0.040519
0.0185051
-0.00346064
0.119093
-0.134139
-0.0567091
0.0447304
0.0165701
-0.0045871
0.00110201
0.00801059
-0.00656165
-0.00255479
0.0705669
0.0413135
-0.0895601
-0.0223224
-0.0857852
-0.0453515
0.0461426
0.0849953
-0.133011
-0.00635372
0.0408389
0.0985251
0.00361264
-0.00179565
0.00370741
0.0221561
0.0241704
-0.0313448
-0.0149817
0.0547674
0.0508995
-0.0522607
0.0851563
-0.0895856
0.0906453
0.0243814
0.00525807
-0.0447207
0.140754
-0.0513197
-0.142604
0.0531737
0.0692213
-0.091217
0.0392827
-0.00744373
0.0079281
-0.00889791
0.00841167
-0.0764975
0.10931
0.0205674
-0.0533798
0.0113093
-0.0148794
-0.0951022
0.0986721
0.0547155
-0.0700488
-0.0720584
0.0873917
-0.0273688
0.0101137
0.0257713
-0.00851602
0.0311124
-0.0912511
-0.046515
0.106652
0.0302152
-0.0288308
-0.0102004
0.00881647
0.0169245
-0.018426
-0.0432873
0.0447884
-0.0367934
0.0545853
0.0615524
-0.0793391
0.00987955
-0.00314437
-0.00940741
0.00267123
0.0360527
-0.0461463
0.0300411
-0.0199453
-0.062248
-0.0243559
0.0778285
0.0087743
0.0176628
0.0443481
-0.0422121
-0.0197989
0.0152197
0.0475227
-0.0450799
0.0669314
-0.0567253
-0.0458557
0.0356492
-0.0661824
0.0706697
0.0697059
-0.0741917
-0.0622974
-0.00842538
0.0673972
0.00332244
0.0201353
-0.0405783
0.0711878
0.00348436
0.0615332
-0.053347
-0.0116752
0.0105883
0.0160041
0.0448305
-0.0714229
-0.0305716
0.0269833
-0.0340907
-0.073213
-0.0760184
0.0755235
0.0737078
0.0576438
0.0706094
-0.0964876
-0.0317601
-0.0898469
0.0887691
0.0732685
-0.0721906
0.0511176
-0.0598061
-0.00303654
0.0117247
-0.0536102
-0.0866271
0.0589354
-0.00870742
-0.00676506
0.00802739
0.068821
0.083687
-0.112002
-0.0643862
0.0489978
-0.0219609
0.0373491
0.053193
-0.0256053
-0.0869533
0.0593657
-0.0762477
0.0169187
0.0825963
-0.0232677
-0.0423492
-0.0214665
0.0438213
0.0199941
0.0160239
-0.130987
-0.0392602
0.132219
0.0391843
-0.0306475
-0.0718588
0.0389519
-0.039206
0.0675931
0.0634272
-0.0669049
-0.0641155
-0.05404
0.0510792
0.0153255
-0.0185162
0.0315843
-0.0283935
0.00555458
-0.00802416
0.04847
-0.0460045
0.118239
-0.0179833
0.0611471
-0.0544456
0.144036
0.0392042
-0.128795
-0.0127088
-0.0101997
0.0135979
0.00931064
0.0829751
0.0937789
-0.0750804
-0.101674
0.018891
-0.00419498
0.00113842
-0.0158346
0.126441
-0.0552522
-0.160675
0.0894849
-0.0846156
0.0353082
0.0785841
-0.0292819
0.118956
-0.00934942
0.0248659
-0.00137409
-0.0226974
-0.00783141
0.0319039
-0.0461282
0.0367244
-0.0169311
0.0263347
0.0145228
-0.00977861
-0.00616995
0.00142587
0.180146
-0.039965
-0.151313
-0.14414
-0.0383975
0.0296908
-0.0593246
-0.0101321
0.0706236
-0.00116696
0.0397863
-0.0478057
0.00755663
0.000461528
0.0145242
0.0669286
-0.0204041
-0.0610497
-0.00806225
0.0075135
0.000777973
-0.000230729
-0.00933477
-0.00987844
0.0139823
0.00523097
0.00638916
-0.0131356
0.013726
-0.0637442
-0.108201
0.130956
-0.0156946
0.0122122
0.0102511
-0.00679167
0.0401587
0.0329632
-0.0438317
-0.0292913
0.0142864
-0.00627491
0.0108797
-0.105805
0.119925
-0.00281021
-0.0673675
-0.0089949
0.00635144
0.013166
-0.0450966
0.0894164
-0.0574878
-0.00235855
-0.0087321
0.00210728
0.00897429
0.00971114
-0.0574895
-0.102371
0.109024
-0.114997
0.041521
-0.0355475
-0.0366544
-0.0451687
0.0477592
0.0340637
-0.0704414
0.0820456
-0.000118036
-0.0515192
0.0527896
0.00528127
-0.00655173
0.0574746
0.00878794
0.00292898
-0.0691915
0.00688117
0.00712549
-0.00807003
-0.00594002
-0.0552838
0.0578935
0.0127142
0.00412436
-0.078839
0.015711
0.0590069
-0.0316379
-0.134951
-0.00118237
0.0646205
-0.0395571
0.0719329
0.0330702
-0.0447795
0.103321
-0.0916128
0.0324125
-0.000285498
-0.0441159
0.0119886
0.0207533
0.0825927
-0.0818537
-0.0214957
0.0549564
-0.0515411
-0.0877078
0.0842923
0.0520793
0.0963607
-0.0253082
0.0703945
-0.063273
0.0731896
0.0901393
0.0118887
0.00412747
-0.106154
0.0280647
0.0167343
-0.0251788
-0.0196205
0.100726
-0.0346995
-0.00680252
-0.0592238
0.0126747
-0.0287354
-0.137931
0.0627565
-0.0168286
0.0920028
0.0356091
-0.0695922
-0.0402903
0.0742744
0.147155
-0.0270393
-0.108148
0.000192609
0.00206663
-0.0022531
-0.006709
0.0605929
-0.0591007
0.00521629
-0.0134213
-0.0480778
0.0219875
0.0395123
0.0495122
-0.0475725
-0.092056
0.0901142
-0.0851034
0.0498876
0.0896356
-0.0544196
0.0424586
-0.0637849
-0.104677
0.126003
0.120236
0.0290138
-0.121943
-0.0273054
0.0287263
-0.0926472
0.000511866
-0.0720226
-0.0103933
0.0678799
0.0145361
-0.111
0.0795595
0.0172001
0.000750451
0.00986362
-0.00604631
-0.00456635
-0.0109613
0.0155341
-0.0144493
0.00987458
-0.10822
-0.0578807
0.105598
0.060502
0.0172154
-0.0154319
-0.00813142
0.00634115
0.0253087
-0.0173587
0.0133672
-0.0213174
-0.0627893
0.0319728
-0.0215071
0.0523233
-0.085149
0.126591
0.0420911
-0.0835335
-0.0943447
0.0832056
0.105889
-0.0423457
-0.016576
0.0444353
-0.00420275
0.0374092
0.0739866
-0.107194
-0.00833537
0.0633008
-0.0368002
-0.0181638
-0.0311077
-0.0290095
0.0542995
0.0058176
0.016611
-0.0164168
-0.0241739
0.0239796
0.0078251
-0.0425911
0.0446357
-0.00986909
0.0306361
-0.0158577
-0.0446191
0.0298423
0.0192058
-0.0346091
0.13564
-0.106283
-0.00837036
0.0500953
0.0771532
0.118087
-0.123389
-0.0718524
0.113117
0.00152848
-0.128345
0.0137027
-0.0259266
0.0267085
0.0323242
0.0205948
0.0241471
-0.0171343
-0.0276075
0.0403452
0.153711
-0.0917343
-0.0635743
0.0677607
0.0591051
-0.0632944
0.0931069
-0.0348817
0.0321839
-0.0904105
-0.00638887
-0.136866
0.0268359