/*--------------------------------*- C++ -*----------------------------------*\
  =========                 |
  \\      /  F ield         | OpenFOAM: The Open Source CFD Toolbox
   \\    /   O peration     | Website:  https://openfoam.org
    \\  /    A nd           | Version:  7
     \\/     M anipulation  |
\*---------------------------------------------------------------------------*/
FoamFile
{
    version     2.0;
    format      ascii;
    class       volVectorField;
    location    "100";
    object      U;
}
// * * * * * * * * * * * * * * * * * * * * * * * * * * * * * * * * * * * * * //

dimensions      [0 1 -1 0 0 0 0];

internalField   nonuniform List<vector> 
11372
(
(11.5042 4.51393 0)
(-0.786595 -5.23841 0)
(7.57753 -2.9157 1.10793e-17)
(-3.69114 -3.37494 -9.66901e-20)
(10.6377 0.735166 0)
(-0.958614 -5.19339 0)
(11.4912 1.29361 -1.70514e-18)
(13.1108 3.7209 -1.06775e-17)
(10.3053 2.41566 0)
(5.85272 5.43186 0)
(11.2233 0.980487 -1.6541e-19)
(6.45701 2.1476 1.08178e-18)
(13.0652 -2.40248 -2.24603e-18)
(10.3011 1.36507 1.5019e-19)
(9.80064 0.261186 0)
(-4.02358 -3.05713 7.99722e-18)
(12.3693 1.44132 8.6907e-18)
(11.6286 1.92346 -2.06012e-18)
(9.67639 1.82006 -7.21557e-19)
(9.67627 0.927211 -6.37302e-18)
(2.05385 0.624547 -6.3509e-18)
(10.5134 0.737543 9.54573e-19)
(8.6958 -9.31642 1.57558e-18)
(0.967626 0.435882 1.75242e-17)
(11.7616 1.06597 1.3597e-18)
(8.2155 0.89399 -2.20419e-18)
(1.68153 -1.95984 2.15525e-19)
(10.2422 2.07138 -3.43762e-19)
(9.86869 0.834903 8.26759e-18)
(9.78864 0.933239 0)
(9.59319 1.64359 -1.90636e-18)
(9.9568 0.846066 -4.60883e-20)
(10.6186 0.47035 1.79324e-18)
(10.6241 1.69055 1.74731e-19)
(3.19236 1.5523 -3.87275e-20)
(10.0327 1.1805 -3.09174e-19)
(10.7891 0.815289 9.82966e-19)
(10.0821 1.47342 -2.96419e-19)
(11.7222 0.246166 -2.48804e-18)
(11.4493 2.8099 -9.1446e-18)
(12.7936 1.68638 1.10269e-17)
(9.89557 0.833223 2.34562e-18)
(10.6523 1.24336 0)
(6.09892 -0.353833 -5.72447e-18)
(10.3225 0.240696 4.88938e-18)
(11.7121 3.5974 -6.09959e-18)
(11.6488 0.14577 -2.3891e-18)
(8.77411 7.12195 -8.58227e-18)
(-1.0821 -6.53742 -3.80993e-18)
(10.7498 0.623652 -3.93752e-19)
(8.0958 0.941074 3.41928e-18)
(11.315 0.969088 -4.43722e-18)
(6.25264 -5.4649 4.74724e-18)
(10.6962 -0.469535 5.30342e-18)
(9.77428 1.59601 0)
(11.2267 1.67636 -2.17608e-18)
(5.87468 1.51021 1.50918e-17)
(-0.777543 -6.34033 -7.72944e-18)
(10.7467 0.606904 -3.69718e-20)
(7.09305 -0.0348468 0)
(12.7965 -4.14505 -3.62512e-18)
(10.1843 -0.759676 0)
(10.0927 1.21844 4.40184e-19)
(-0.138149 1.16553 -1.64931e-17)
(7.91363 2.49631 -1.2786e-18)
(10.1954 1.27662 -1.51094e-18)
(12.1075 2.01224 2.70766e-18)
(-0.831943 -1.65017 -1.44261e-17)
(7.34375 -5.24331 6.86511e-18)
(1.87725 0.721876 0)
(10.6209 0.721889 -2.91428e-19)
(11.0266 1.45479 -2.88766e-18)
(10.774 0.92496 -3.5158e-20)
(11.1841 0.59691 1.42999e-18)
(12.2858 2.69255 2.92064e-18)
(9.92766 0.881871 8.77995e-20)
(-4.29267 -2.89109 -8.17096e-18)
(10.4512 1.91139 8.95414e-19)
(9.95053 0.797488 -6.12415e-18)
(13.4917 2.57236 0)
(-6.13517 -0.236352 -1.13073e-17)
(3.9059 -6.11593 -8.462e-19)
(0.774795 -2.81186 -3.85185e-17)
(9.25069 -3.80469 -1.14407e-18)
(17.4694 -1.14108 -7.18161e-18)
(11.016 8.64557 5.85524e-18)
(10.116 1.21837 0)
(10.3433 2.04158 1.62866e-19)
(8.97041 0.607723 -3.23003e-18)
(12.9257 4.55804 -7.09151e-18)
(10.7054 0.830993 -7.87837e-19)
(10.4256 -0.765151 -9.04889e-20)
(-1.2541 -4.67304 0)
(9.90628 -3.00354 8.18158e-19)
(10.6133 0.128519 8.75889e-19)
(6.85984 1.39027 -4.10186e-18)
(12.1373 2.39287 2.16819e-17)
(6.15105 4.14608 -8.11485e-19)
(-2.34788 -0.377091 1.02117e-17)
(10.3604 1.34107 2.4829e-18)
(10.0807 0.45418 2.87747e-18)
(8.47281 -0.397 8.59791e-18)
(9.95384 0.578666 4.71639e-18)
(10.7158 0.689153 2.71134e-19)
(9.7877 0.297985 -5.24263e-18)
(1.8902 1.97547 1.39685e-17)
(0.996486 -3.4622 -1.37024e-17)
(9.9055 0.564258 -1.27749e-17)
(10.2682 1.45729 -3.88851e-19)
(9.1513 0.587618 0)
(10.2118 1.89413 -7.80337e-19)
(8.87675 0.107702 1.77854e-18)
(9.38905 -7.28312 1.62895e-18)
(9.79431 1.1592 -6.79071e-18)
(3.52849 5.76759 2.4689e-17)
(10.119 0.473664 -3.48134e-19)
(13.8137 1.2097 3.17178e-18)
(9.98526 1.12534 0)
(10.3123 1.38194 0)
(-4.24462 0.717536 -8.55191e-18)
(4.34676 5.1378 1.0574e-17)
(12.8872 1.18922 1.74852e-17)
(5.68934 0.299117 -1.70638e-17)
(10.0963 1.49715 1.37074e-18)
(7.49887 -0.617332 2.86751e-18)
(9.76893 0.861966 2.90766e-18)
(11.5858 1.52166 2.46566e-18)
(13.0362 1.46125 7.87652e-18)
(10.7193 2.90173 -5.87058e-20)
(12.9688 2.19238 -5.96195e-19)
(11.2876 3.04919 -1.65901e-17)
(11.2275 3.37134 6.39539e-19)
(-0.698749 -0.834662 -2.16974e-17)
(13.2577 -0.930832 1.39915e-18)
(12.1979 0.81188 0)
(10.8834 1.11415 4.58045e-18)
(11.4896 1.78018 -3.6345e-18)
(3.27487 0.0362635 -1.16412e-18)
(1.71228 3.83244 -1.35528e-17)
(9.91991 0.590243 0)
(9.22902 0.00642632 -5.04482e-19)
(9.93307 0.88791 0)
(3.13848 0.619595 5.94883e-18)
(8.99107 -5.25241 -7.59478e-19)
(10.6279 0.765261 6.96521e-20)
(12.9768 2.78762 -1.42493e-19)
(-1.7203 -3.26267 1.01256e-17)
(9.47864 1.88861 0)
(9.63077 1.51265 0)
(14.1382 1.00989 5.57847e-18)
(10.7634 0.209078 7.25477e-19)
(10.6217 6.92499 1.52691e-18)
(12.222 0.475877 6.23837e-18)
(-1.48297 -4.63755 0)
(9.96973 1.44075 -3.69947e-18)
(10.4839 0.97039 -1.01582e-18)
(10.8077 2.06695 -2.72726e-18)
(10.7152 1.76609 -3.89232e-18)
(6.3573 6.08604 0)
(9.74721 0.217158 -1.45636e-17)
(11.2479 0.890582 2.53473e-19)
(10.7335 0.68931 0)
(12.8917 1.78508 6.58963e-18)
(9.95295 0.841716 1.91103e-17)
(-1.23727 1.21669 3.19801e-18)
(12.283 -0.901277 0)
(12.403 1.95568 5.18513e-18)
(-4.92296 -2.64108 0)
(10.7188 0.739167 6.91597e-19)
(10.5485 1.18326 -8.82596e-20)
(2.56913 -1.58599 1.17244e-17)
(10.3565 0.740823 0)
(7.90257 0.507193 -6.22904e-18)
(12.2447 3.21005 -5.79665e-18)
(8.9961 2.78562 4.16934e-18)
(13.1623 4.89034 1.66464e-19)
(9.53663 2.71039 0)
(3.40752 2.02391 1.85391e-21)
(13.7404 4.11989 4.01166e-18)
(10.0082 0.391245 -5.59054e-18)
(9.56421 -3.73638 -2.63653e-19)
(9.56981 1.03656 1.38223e-17)
(12.4147 6.49112 -1.66519e-17)
(13.433 4.91314 -4.67445e-18)
(-0.918037 -0.17384 0)
(13.7833 0.978368 1.37693e-18)
(6.79521 3.7589 0)
(12.9922 2.24046 2.65159e-18)
(8.40315 0.141168 0)
(-0.855536 -6.03199 -1.57967e-21)
(10.6401 0.722718 -2.61238e-20)
(9.75266 1.23095 0)
(8.24261 0.508195 2.61059e-17)
(11.6653 1.1023 -3.22431e-18)
(12.8094 1.23237 8.32237e-19)
(11.6508 0.698066 9.31806e-19)
(-0.0500381 -1.13814 4.37682e-17)
(9.79891 0.882458 3.49551e-19)
(12.6843 4.03592 1.68499e-18)
(11.6268 2.46578 -1.42299e-18)
(9.77217 1.00118 -9.3067e-18)
(9.20573 0.604495 -1.63203e-18)
(9.49612 0.700397 0)
(4.3542 1.49964 -8.53545e-18)
(10.2351 1.61891 0)
(11.1484 1.27423 2.94378e-18)
(10.4888 0.540597 8.69739e-20)
(11.2708 1.71679 -1.16872e-18)
(11.3532 1.64744 1.57204e-19)
(8.01438 1.66072 1.2311e-18)
(14.7997 0.298411 -2.56355e-19)
(10.9193 1.72987 -2.2161e-18)
(10.1834 1.30718 0)
(9.71877 0.814227 -5.22348e-18)
(9.87264 0.576306 0)
(10.8156 -0.204262 9.26405e-18)
(9.86871 0.807544 -1.71836e-17)
(9.62261 0.973458 7.39827e-21)
(11.2101 1.29081 9.68887e-18)
(-3.73945 -3.28092 1.6313e-17)
(13.3075 4.66665 -4.35955e-18)
(9.66544 1.01622 -7.25263e-18)
(1.74109 -2.8271 1.79602e-17)
(-0.189271 -1.27464 -3.68439e-17)
(9.89366 0.590649 4.88251e-18)
(9.78351 5.44917 3.08054e-19)
(-1.20968 -0.379652 7.08533e-20)
(10.7417 0.879374 -3.24112e-18)
(9.91452 0.478115 0)
(10.5656 -0.609438 -1.97856e-18)
(9.64549 2.37084 -3.31392e-18)
(9.81099 1.61028 2.54417e-18)
(12.2219 2.12169 -3.10705e-18)
(10.5247 1.39332 1.2372e-19)
(12.9246 2.98527 9.43168e-19)
(-2.56243 -1.89469 5.13611e-18)
(12.7027 2.44699 0)
(7.4445 1.05209 -2.01562e-18)
(10.8949 -0.345973 -2.84954e-18)
(12.0862 -2.17251 4.37614e-18)
(9.958 0.854655 -1.34597e-17)
(13.5414 3.0411 2.96777e-18)
(9.99086 -2.69787 3.0445e-18)
(10.1001 1.30572 3.40845e-18)
(9.2552 -3.48639 9.68591e-19)
(10.3124 1.94443 0)
(9.57572 1.48535 9.07997e-18)
(9.57449 4.19612 2.27927e-19)
(9.88106 1.86565 -7.09413e-18)
(12.6269 6.16643 -8.9722e-18)
(10.9423 -0.825616 -4.93948e-19)
(10.4645 0.754466 -1.18363e-19)
(16.6535 6.84207 1.51524e-18)
(10.1363 1.40634 1.17817e-19)
(13.3754 2.29535 -6.91254e-18)
(9.52868 0.12456 3.57909e-18)
(4.52564 0.291554 -4.43111e-18)
(9.99709 1.1709 -1.38515e-18)
(8.90416 2.1407 4.65622e-20)
(10.2845 -0.0140295 9.54312e-19)
(12.6552 1.8379 -9.59705e-19)
(9.91218 0.872768 -2.08752e-18)
(7.76848 3.18826 -3.97121e-19)
(9.80709 0.58336 2.925e-18)
(6.79645 -3.21899 -5.3263e-18)
(11.7547 2.01828 3.19994e-18)
(8.71794 1.88208 0)
(0.479374 -0.0204257 -8.62845e-18)
(0.818174 3.72785 2.82865e-17)
(12.331 0.360107 0)
(0.393306 0.474002 -2.62318e-17)
(10.4054 3.09604 5.55765e-18)
(9.52316 3.98181 -2.39498e-19)
(12.0522 0.903726 0)
(11.6827 0.384746 0)
(1.83934 0.700565 0)
(10.2157 -0.0103919 -8.75256e-19)
(10.2187 1.22807 4.0905e-19)
(10.4444 -0.544315 2.42491e-18)
(8.69687 0.845591 -7.52945e-19)
(10.7257 0.536099 -3.99123e-19)
(10.2704 -0.902713 0)
(9.67517 0.0902892 0)
(10.3568 -0.222554 -1.1093e-18)
(11.078 1.22811 -2.46669e-19)
(10.4895 1.3674 -4.66331e-20)
(-1.7832 -0.290277 9.288e-18)
(-1.20769 1.72235 -6.40525e-17)
(10.1978 1.26848 1.95682e-18)
(7.93678 3.46376 3.95282e-19)
(5.51841 -0.512145 0)
(9.84546 0.993436 4.66527e-18)
(0.417711 -2.28611 3.73161e-17)
(10.432 0.575346 -2.27467e-19)
(1.40662 0.666253 -3.67513e-18)
(10.0245 1.62702 -8.71081e-18)
(7.1859 0.205869 0)
(9.91523 1.14978 5.83741e-18)
(11.4691 -2.22316 -1.54346e-18)
(-2.55597 -2.94383 -4.95349e-18)
(9.94509 0.885706 7.55475e-18)
(13.6328 0.44037 0)
(2.83817 1.62289 -1.76392e-17)
(7.87744 1.16701 -9.6974e-18)
(10.7209 0.673363 -2.10294e-19)
(11.0889 2.44288 -4.74896e-18)
(3.97366 -5.37482 1.27201e-17)
(10.7294 0.622529 0)
(9.94807 0.850378 3.33888e-18)
(11.1697 0.835704 0)
(7.85153 -6.7059 -2.86491e-19)
(9.95394 0.791403 1.89157e-17)
(-3.75419 1.66079 -8.40375e-18)
(16.4933 -0.0695242 2.95602e-18)
(10.2197 0.545453 -1.9851e-18)
(9.92099 2.12914 -6.48375e-19)
(0.403226 0.0542526 -2.09493e-17)
(12.6559 -0.821408 5.22668e-18)
(11.9197 1.84241 -8.097e-20)
(13.2608 1.98675 -5.35489e-18)
(9.99145 3.15756 -2.11643e-19)
(-3.06415 -3.59925 0)
(10.6762 0.454131 7.19251e-19)
(9.7146 0.707818 0)
(9.74943 1.02286 1.43951e-18)
(12.3628 2.07553 -4.53062e-19)
(13.4081 1.49973 0)
(8.82502 -2.04622 0)
(10.0709 5.31807 1.35609e-18)
(11.4641 1.14298 -3.44185e-19)
(6.47767 2.11197 8.83238e-18)
(9.79803 0.911331 6.02811e-18)
(6.5241 5.0071 0)
(12.857 1.39216 -4.35774e-18)
(11.5792 -0.657352 1.16288e-19)
(12.2113 2.61651 -4.36134e-18)
(10.5485 0.731233 1.65919e-19)
(-0.603624 1.15519 0)
(10.1553 2.26051 4.97127e-18)
(11.251 2.51334 1.35031e-19)
(-4.96348 -1.61191 0)
(8.83245 -0.779914 0)
(10.5532 -0.349365 0)
(10.7369 1.63127 6.0869e-18)
(10.4704 0.929925 5.25039e-21)
(10.4934 0.539826 -1.12594e-18)
(10.5293 1.40454 5.02031e-18)
(11.2519 1.36083 0)
(7.32563 0.483765 3.6053e-18)
(9.95802 0.870313 6.91304e-19)
(3.20453 6.65649 -2.5128e-18)
(12.0375 1.89533 2.57763e-19)
(8.6264 0.657172 1.32579e-18)
(8.19124 -1.55239 5.30298e-18)
(9.83254 -0.0184059 6.64583e-18)
(12.9851 1.6028 4.3249e-18)
(6.05132 0.798508 2.1465e-17)
(8.84011 0.430823 -3.30996e-18)
(9.64282 1.60893 9.46035e-19)
(9.79153 1.07176 0)
(10.3971 1.30773 0)
(11.7161 1.73987 3.5411e-18)
(9.7437 -0.487681 1.67462e-19)
(9.44685 0.993925 -1.20478e-18)
(10.1818 0.593004 -1.9777e-18)
(-1.7284 0.534065 2.38854e-17)
(12.0571 2.24242 -4.5636e-18)
(5.01325 1.93233 0)
(8.05488 1.96406 1.32372e-17)
(9.69854 0.600673 3.68126e-18)
(9.77108 0.667155 0)
(11.1762 0.36149 -5.83341e-20)
(-2.90494 -3.14789 1.8948e-17)
(-2.77782 -3.3433 9.06354e-18)
(9.89089 3.80294 7.57724e-19)
(7.79336 1.88661 -2.69473e-18)
(6.31233 -0.0851397 -5.26358e-18)
(9.87706 0.640054 -9.21878e-18)
(12.916 1.61563 -3.73424e-20)
(12.3676 2.50959 0)
(10.4931 1.55182 -1.14248e-18)
(9.76137 0.887527 -1.34968e-20)
(11.4885 0.115154 0)
(11.3854 2.3032 0)
(10.2022 -0.236877 0)
(6.07721 6.71329 -1.71093e-18)
(0.216656 -3.81924 9.26026e-18)
(10.1948 2.67376 1.97206e-19)
(13.0243 1.79989 3.12829e-19)
(11.0731 1.59396 3.30791e-18)
(4.38374 -0.207367 2.6729e-18)
(0.750694 0.33914 5.68424e-18)
(10.0146 1.41048 -3.21142e-18)
(11.3226 1.59395 3.96528e-18)
(10.0463 1.18672 1.71544e-18)
(10.9887 1.95285 2.95507e-19)
(10.4933 0.747927 0)
(15.7102 3.74047 0)
(10.4216 -6.15473 0)
(13.4011 1.34831 4.77597e-18)
(9.17705 0.339825 6.52612e-19)
(10.8026 1.14988 -1.02592e-18)
(10.1821 1.40451 2.21608e-20)
(-2.3111 -3.70941 -9.83011e-18)
(10.9276 0.52182 -5.90913e-20)
(10.4843 1.38794 -1.98499e-18)
(3.30055 -0.428472 -7.72664e-18)
(-2.65359 -0.189878 3.63999e-18)
(11.3902 1.55387 1.13388e-18)
(10.9546 0.652763 1.36792e-18)
(10.007 0.433594 0)
(6.83427 0.206905 -2.11815e-18)
(10.7891 0.704309 1.27262e-19)
(-0.913917 -5.71461 -9.13561e-18)
(-1.88707 -0.194108 1.06432e-17)
(-0.273342 -4.88437 4.46848e-18)
(10.0404 1.07575 1.60675e-17)
(9.83706 -2.00015 0)
(10.1011 1.15094 0)
(10.9238 0.879251 -8.56394e-19)
(7.3578 -0.420257 -7.93641e-18)
(10.5695 0.911706 3.87113e-19)
(9.97168 0.728923 2.62577e-18)
(8.13938 9.96938 1.22493e-18)
(9.70327 1.6804 -4.44686e-18)
(9.9302 0.905648 -1.2791e-17)
(-0.711764 1.36305 5.45417e-18)
(9.92103 1.61294 3.90013e-19)
(8.8661 1.36157 -2.85277e-18)
(9.95608 0.806441 1.23517e-17)
(10.3439 1.42837 0)
(10.5991 0.643879 3.59386e-18)
(10.4283 0.825466 -4.35439e-19)
(-0.0465263 -0.367478 2.18566e-16)
(7.49266 6.49271 -4.26445e-18)
(10.0807 1.29181 0)
(5.69084 3.30537 1.20904e-18)
(9.69325 0.952384 6.32205e-18)
(4.69187 0.15976 4.45343e-18)
(11.4098 0.657139 1.25608e-18)
(11.4378 4.65827 -1.62532e-18)
(10.799 1.60536 2.76241e-18)
(9.95787 0.665111 3.72335e-18)
(11.2669 0.870069 0)
(10.4111 0.553993 -5.61224e-19)
(-4.72306 -2.46726 -7.77246e-18)
(-0.183959 -0.0813585 -6.406e-17)
(9.87167 0.77913 3.45054e-18)
(-0.462739 1.22046 5.35131e-18)
(5.48307 0.198265 -8.46355e-18)
(10.4007 0.974669 -8.03753e-19)
(13.9192 -1.62782 2.91672e-19)
(11.2677 0.747808 -3.52954e-18)
(8.59974 1.61635 3.59399e-18)
(12.9602 0.670431 0)
(8.62947 0.347924 -2.99447e-18)
(5.81307 -0.577137 1.79972e-19)
(13.7747 0.982901 1.01162e-17)
(9.88077 0.285183 0)
(10.6755 0.711989 1.05317e-20)
(7.74769 0.702553 1.11229e-18)
(6.74608 1.27655 9.59006e-18)
(10.2769 0.564619 1.20044e-17)
(11.745 -2.10877 5.73464e-18)
(3.12402 0.199076 -2.44267e-19)
(5.44565 5.89721 0)
(11.2533 0.800157 -2.88095e-18)
(13.1083 0.878444 1.05678e-18)
(7.15156 2.39347 -2.90509e-18)
(8.92373 -3.2249 0)
(10.4851 1.82825 -2.79912e-18)
(8.02334 1.41961 -1.64636e-19)
(9.7637 0.829384 -2.61821e-18)
(11.4501 4.90561 0)
(4.52814 1.31142 0)
(7.68403 4.00883 5.25087e-18)
(12.9581 -1.48105 3.79494e-18)
(10.5156 0.741528 2.68459e-20)
(10.6441 1.16872 -8.4568e-20)
(9.67897 5.02682 -7.64686e-18)
(9.70937 0.861122 1.7187e-17)
(2.15284 1.57116 0)
(-1.08843 0.499114 3.6531e-17)
(10.1706 0.516092 0)
(10.4121 1.37159 -1.69407e-18)
(-0.363342 -1.65469 -2.35587e-17)
(8.369 -0.122613 -1.68468e-18)
(12.3963 1.06419 3.12637e-18)
(10.6617 0.695971 0)
(10.1966 1.39112 0)
(11.9349 0.913724 -1.49042e-18)
(9.90012 1.11317 2.88194e-19)
(10.1117 1.67206 4.93463e-18)
(10.2721 0.79182 0)
(11.7287 1.40004 -2.43712e-18)
(9.02491 -1.83485 -1.94715e-18)
(8.39103 -0.700844 1.49199e-19)
(10.2802 1.33723 2.67352e-20)
(9.75337 0.948506 1.39429e-18)
(9.92119 0.764146 7.13466e-18)
(9.92194 0.962821 -1.98025e-17)
(14.1377 1.03648 -1.25548e-18)
(11.64 6.56715 8.3047e-18)
(2.44172 0.264485 -4.45588e-18)
(9.16092 1.19344 9.6228e-18)
(10.6906 1.71467 0)
(0.797355 -0.424124 0)
(10.1441 0.531391 -1.59026e-18)
(14.7044 0.675313 -7.37028e-18)
(10.6778 0.650816 9.69546e-20)
(14.1164 4.04912 3.43153e-18)
(11.9735 -0.672459 0)
(12.5587 0.118362 6.45314e-19)
(9.93274 0.616078 -1.46237e-17)
(9.9385 0.90895 1.4332e-17)
(10.0437 0.359466 0)
(8.78893 0.499059 -6.65579e-18)
(8.47461 4.14281 -4.08103e-20)
(8.11321 2.11775 0)
(12.0725 -0.257064 0)
(11.4717 3.42194 6.85239e-18)
(10.144 0.653998 1.03648e-18)
(4.74031 0.223048 1.64697e-19)
(10.4485 1.71038 -2.38218e-18)
(8.76265 2.07038 6.72923e-18)
(10.4421 0.0134712 -1.82803e-19)
(1.05649 -3.90924 0)
(10.4916 1.4481 -8.44068e-20)
(13.1547 1.09784 -1.60736e-18)
(11.5395 1.0664 0)
(10.3982 2.2158 4.19975e-19)
(10.7541 1.28161 3.05237e-18)
(10.3729 2.01072 9.01237e-19)
(12.0397 1.74596 4.18113e-18)
(10.6437 0.759564 4.09111e-18)
(8.49642 1.74462 0)
(10.7555 -1.5964 9.18105e-20)
(10.5605 0.912641 -2.05685e-18)
(10.1518 6.89526 -1.27049e-18)
(9.65533 1.45652 -3.15553e-18)
(10.6917 0.669496 -7.8124e-20)
(-1.54553 0.63877 -6.91454e-18)
(9.6929 -3.98266 -7.62796e-19)
(8.98223 1.94181 9.58278e-18)
(8.91815 3.56214 0)
(11.2222 1.89229 -7.49651e-18)
(9.55462 -1.49118 -4.97616e-18)
(11.4581 -1.46144 6.11499e-19)
(12.3349 5.93495 4.85114e-18)
(1.0129 -3.77395 -6.86224e-18)
(10.4668 0.512377 3.73179e-19)
(11.2103 -1.50456 0)
(13.2468 1.21303 -7.05342e-18)
(9.87973 0.823031 2.97893e-19)
(10.7724 -0.222205 3.70543e-19)
(10.3536 0.259469 -9.85356e-20)
(5.34466 1.86043 0)
(9.86882 1.06429 2.22922e-18)
(11.4992 0.207602 0)
(4.16175 6.64931 -1.27683e-18)
(9.94975 0.874884 -8.34283e-18)
(10.2661 1.54593 1.65623e-18)
(10.4517 0.885726 3.40881e-20)
(13.2719 0.0768354 7.7835e-18)
(7.65573 0.889976 -8.07894e-18)
(11.1668 1.70003 2.18503e-18)
(6.11758 3.54881 -2.18748e-18)
(4.31611 0.471581 4.34805e-18)
(12.1726 0.999722 -7.34248e-19)
(3.97679 0.458635 -5.96154e-18)
(10.4212 1.28724 -3.27525e-19)
(10.2139 4.35824 3.23035e-19)
(10.2327 1.54876 1.31596e-19)
(11.0176 10.9952 -2.74285e-18)
(9.99174 0.323873 -3.43582e-18)
(8.43159 2.97877 8.17416e-18)
(11.8513 4.58205 6.15939e-18)
(9.94787 11.1508 6.29599e-18)
(10.7078 1.19195 3.0511e-19)
(10.0423 1.93664 -6.28843e-19)
(-6.30086 -0.637764 2.04612e-17)
(11.1737 1.97432 3.85952e-18)
(13.0321 2.00171 3.29724e-18)
(-1.67695 -0.206992 1.69706e-17)
(12.2455 -2.61965 -2.70297e-18)
(10.7147 0.341626 -4.75778e-19)
(5.48102 8.75025 6.41357e-19)
(10.4823 1.44743 2.01174e-18)
(-1.11365 -0.822621 -1.43888e-17)
(10.5685 0.730228 1.42556e-19)
(9.23793 -0.149671 -1.6126e-18)
(11.281 1.84709 2.91296e-18)
(5.35757 0.534822 1.05943e-17)
(4.67526 0.533814 0)
(0.235414 3.98668 9.86255e-19)
(11.9575 -0.422209 5.19682e-18)
(12.4716 -0.885178 -1.02776e-17)
(10.9357 0.381319 0)
(14.6373 2.55629 0)
(1.95519 -1.88238 -1.68616e-17)
(12.4294 1.58438 5.32996e-18)
(11.6145 2.50274 0)
(9.95388 1.08841 -4.80966e-18)
(2.53862 0.722344 0)
(8.52658 4.63477 0)
(8.2086 2.33415 -5.52799e-19)
(10.2023 1.27365 5.26873e-19)
(4.19497 0.653968 -5.47914e-18)
(10.1273 0.758252 2.39209e-19)
(11.4845 5.36672 1.04703e-17)
(-0.836397 -5.22877 1.3568e-17)
(10.5619 1.08493 -4.27956e-20)
(9.82118 0.722088 -5.99959e-18)
(9.9434 1.18874 3.23588e-18)
(10.7651 -7.11309 1.87451e-18)
(11.8311 -0.114765 2.20424e-18)
(11.4768 -7.29505 4.04544e-18)
(11.0335 -2.16835 9.79821e-19)
(12.3049 2.22612 5.60859e-18)
(-2.39979 -1.56543 6.39825e-19)
(12.2936 1.33142 8.99941e-18)
(12.7393 1.21634 -3.01689e-18)
(8.37279 0.801023 8.25783e-18)
(8.35218 0.914099 9.76509e-18)
(9.95147 -0.375804 2.34755e-18)
(11.3587 1.2496 -7.53705e-18)
(13.3627 1.08437 -2.7377e-18)
(12.9755 -1.25258 -3.68739e-18)
(11.6008 0.84433 1.37061e-18)
(10.3059 2.22051 -6.14144e-19)
(13.9964 -1.89194 -3.59716e-18)
(9.87678 0.885486 0)
(11.3912 2.66778 7.94492e-18)
(10.6707 0.591697 2.57743e-18)
(13.0449 -2.82075 2.73201e-19)
(11.6598 3.26173 -1.87925e-17)
(-0.900335 -5.34847 0)
(9.95453 0.77738 -2.14053e-17)
(10.21 3.13446 -5.20475e-19)
(11.8722 -0.0337398 2.80927e-18)
(10.0119 0.211592 0)
(10.8111 -2.02598 2.17281e-19)
(10.4162 0.765896 -4.94791e-21)
(10.1279 0.777826 -1.13381e-20)
(9.70197 0.907724 9.50265e-20)
(10.3231 1.3863 8.8195e-19)
(11.291 1.66428 2.48341e-18)
(8.36418 0.578033 -7.9734e-18)
(13.3417 1.24555 0)
(10.701 0.679195 -1.5834e-19)
(10.6559 0.70016 -3.25953e-19)
(4.93838 -2.25253 0)
(11.1222 1.06261 2.45036e-18)
(4.13774 -7.68048 1.00624e-17)
(10.0161 1.17458 4.76478e-19)
(10.2865 -0.786124 1.41057e-18)
(9.92654 0.893247 -8.57705e-19)
(11.9303 1.80252 -8.9537e-19)
(9.72436 -0.20151 -2.06029e-18)
(2.72653 -5.63957 -1.83256e-17)
(10.2723 0.725445 0)
(10.3196 1.34587 0)
(9.36712 0.307907 2.14599e-18)
(16.101 -1.12074 1.36804e-18)
(7.74222 -0.290294 0)
(0.443976 -4.20054 2.62906e-18)
(4.44067 -1.83659 8.84304e-18)
(5.10844 2.2369 -9.2102e-19)
(10.7369 1.83236 -3.75348e-18)
(-3.04154 1.0296 -4.91012e-19)
(13.6918 -1.03343 3.72239e-19)
(5.0241 -7.97433 0)
(9.80864 0.743212 6.33636e-19)
(9.67504 1.40413 0)
(7.2502 0.638187 -3.62064e-19)
(1.44296 0.254172 -1.6351e-19)
(10.5601 1.16019 2.6269e-19)
(10.0621 0.627866 3.8023e-18)
(9.69967 -0.366499 0)
(12.368 -0.216859 -2.88774e-18)
(9.56393 2.20207 0)
(10.7606 2.52408 -2.99481e-19)
(1.64582 -3.25511 -5.48353e-18)
(10.6169 0.939492 -5.78034e-18)
(13.7405 2.80097 -3.56513e-18)
(10.5398 0.874102 6.62247e-19)
(10.4164 1.26165 2.07365e-19)
(10.826 0.113651 5.60344e-19)
(10.2106 -1.42232 1.82058e-19)
(11.8808 -0.485562 1.2857e-19)
(10.0072 0.507692 -6.51751e-18)
(9.95677 0.638109 3.37254e-18)
(10.0107 0.709705 -3.64545e-18)
(12.0674 1.08336 -1.95014e-18)
(9.78702 -2.24662 -3.08396e-18)
(11.4959 0.271152 -6.31728e-19)
(9.21486 -3.21723 -5.2849e-19)
(9.89993 0.903034 3.95891e-18)
(11.9387 2.50957 -1.07349e-17)
(10.4722 1.18496 -3.31391e-18)
(-0.769295 0.620507 -5.34845e-17)
(12.6942 -0.238949 1.06661e-18)
(12.3214 4.54422 -2.18155e-19)
(10.6172 0.0479541 0)
(11.5275 1.32246 0)
(10.0529 0.621394 7.68826e-18)
(10.0051 0.712395 4.55843e-18)
(10.0101 1.38307 6.56738e-18)
(10.4144 1.95282 -2.75046e-18)
(9.83409 0.574662 1.00357e-17)
(-1.83287 -3.09443 -3.16271e-17)
(6.38574 0.655246 -1.58334e-20)
(10.0912 0.493695 -8.97123e-18)
(-3.88913 1.81689 1.68641e-17)
(9.59943 -2.84144 0)
(9.54086 0.0225252 0)
(10.5721 1.21254 0)
(10.6855 0.513334 -8.74634e-19)
(9.04459 3.39789 0)
(11.0476 1.02947 1.57556e-18)
(13.7597 2.10272 2.0331e-18)
(11.0216 3.26679 -8.84692e-19)
(7.6529 0.0447541 6.437e-18)
(11.0642 4.07354 1.54248e-18)
(12.8031 1.95083 2.85384e-18)
(10.0239 0.708826 -6.89878e-19)
(10.1777 1.21484 2.8606e-19)
(10.381 0.586049 -2.13813e-18)
(10.8647 1.51341 1.28696e-18)
(8.44496 -0.832259 -4.00014e-18)
(12.0361 -8.50556 -1.48658e-19)
(10.009 1.15893 0)
(11.117 -0.485384 -2.06945e-19)
(10.5972 1.96471 2.23323e-18)
(10.7382 0.672416 1.62577e-20)
(12.1135 4.00034 -6.24119e-18)
(7.07921 3.6421 6.8737e-18)
(9.26293 3.44971 3.60197e-19)
(10.933 1.7347 9.35885e-19)
(10.512 1.05574 -1.97263e-18)
(9.88832 3.6098 0)
(15.6796 -1.65058 5.19572e-18)
(11.5158 2.46629 -2.19138e-18)
(11.9317 2.36306 -4.08233e-18)
(12.452 1.30676 2.52379e-19)
(8.14255 -0.129182 -9.20689e-18)
(8.37392 1.05023 -4.41939e-18)
(-2.14212 -0.835072 1.44804e-17)
(9.48794 5.60379 8.81271e-18)
(-1.65182 -1.62321 -2.43659e-17)
(11.6207 0.791511 7.11877e-19)
(10.5156 8.62445 9.88915e-19)
(12.2017 -4.14732 8.88359e-18)
(7.70688 0.733996 -3.26974e-18)
(12.4777 2.44986 1.77693e-18)
(9.87306 0.606222 8.31961e-18)
(11.1731 1.56974 4.07094e-18)
(9.96952 1.16324 3.46835e-18)
(5.48453 1.07652 5.40118e-18)
(7.83941 0.965092 -4.57275e-20)
(2.10418 -3.05266 -1.09622e-17)
(2.73595 0.419853 3.27544e-18)
(12.7692 2.52289 0)
(9.61235 1.42965 0)
(11.2398 1.05173 6.60386e-18)
(8.19782 1.4771 5.36459e-18)
(9.7248 0.887869 -1.12586e-17)
(10.487 0.770191 8.47542e-19)
(12.5832 3.49532 -1.67434e-19)
(7.91753 0.301827 -4.48944e-18)
(-1.32106 0.650408 0)
(9.93639 1.07925 -6.11373e-18)
(12.8335 0.755253 2.64552e-18)
(10.6152 1.24843 -1.41844e-18)
(10.2139 -2.75323 1.63305e-18)
(9.94285 0.812269 7.38232e-18)
(4.72301 -6.21189 4.27082e-18)
(11.8751 2.76802 6.33109e-18)
(9.09769 3.68909 -2.01062e-18)
(9.94504 0.830332 1.96996e-18)
(-5.65558 -0.26476 -4.06024e-18)
(17.5421 -8.08246 0)
(9.16572 -0.0161651 3.53746e-18)
(14.6067 0.675762 4.7575e-18)
(11.0923 -1.0472 -9.38406e-19)
(13.4536 2.08438 2.51011e-18)
(9.95035 0.825275 -5.99762e-20)
(12.1347 1.73959 -1.69885e-18)
(3.03934 -6.1625 8.88737e-19)
(2.81214 0.746472 -4.99605e-20)
(8.5971 -0.790482 1.22436e-17)
(10.9226 1.02287 3.51661e-18)
(10.1497 0.55141 -9.26407e-20)
(11.023 -1.22645 0)
(14.4523 -0.521187 -5.13944e-18)
(2.48845 -2.86239 0)
(11.6284 2.36834 0)
(3.12637 -2.04327 3.96279e-18)
(11.3904 0.308813 3.86397e-19)
(9.3452 2.36869 6.17688e-19)
(9.38159 0.983626 -1.25453e-17)
(10.6567 1.90286 9.2465e-20)
(11.469 -0.488845 -1.79644e-18)
(-0.363076 -3.24427 -1.94324e-17)
(13.7291 2.04669 -7.25421e-18)
(9.92698 5.0557 -1.74972e-19)
(8.76965 3.73509 -5.4466e-18)
(9.94033 1.3604 -6.16414e-18)
(13.0386 1.67397 4.86978e-18)
(-1.30815 0.375647 1.68837e-18)
(9.88795 1.09159 -3.03891e-18)
(-0.346515 -2.87671 -1.83787e-18)
(10.5452 0.619788 7.6186e-19)
(10.526 -3.76 -1.20842e-19)
(9.9393 0.764323 -7.91342e-19)
(10.8329 0.762366 1.57774e-18)
(7.00832 4.10074 2.13289e-18)
(6.71576 -0.520772 -4.98898e-18)
(10.6694 0.704846 0)
(4.85049 -0.0815727 9.47896e-18)
(12.5651 -3.85387 -4.70246e-18)
(-0.222353 0.367145 -1.57919e-19)
(7.75177 6.93854 1.05811e-18)
(-0.876085 -2.38593 -1.25081e-17)
(10.4159 1.45055 -7.60244e-19)
(7.15702 -0.659419 -7.77034e-18)
(-0.563846 -5.6971 -9.54039e-18)
(3.55813 1.26918 0)
(11.2913 4.99062 2.10178e-18)
(10.3219 1.38498 1.67465e-18)
(0.00220423 0.440358 -1.07422e-17)
(9.48466 -0.628909 1.22599e-17)
(9.81463 -0.511689 2.08016e-18)
(8.31279 -0.125058 1.8361e-17)
(10.5238 0.47831 3.68968e-19)
(-2.38275 -0.131625 7.82406e-18)
(17.0279 -1.83103 4.89787e-18)
(13.2756 -2.54807 2.16435e-19)
(10.2636 1.66078 -1.40502e-19)
(9.52905 2.13039 2.18428e-18)
(0.186926 -4.41217 -1.16625e-17)
(-5.55886 -0.449234 0)
(0.0438956 2.44044 -4.46066e-18)
(11.2427 1.43644 -2.97064e-17)
(10.5723 1.96286 1.99922e-19)
(8.8518 1.25067 -1.22536e-17)
(12.1227 3.82377 0)
(8.01766 -0.509288 0)
(12.1864 0.73787 -9.52256e-20)
(10.4961 -0.435808 -1.21955e-18)
(13.9333 9.2613 1.44407e-17)
(12.0714 2.53797 3.27265e-19)
(12.4288 1.71523 1.68691e-17)
(8.32756 5.02482 2.80367e-19)
(9.59218 -0.672071 -7.74812e-18)
(1.84027 -3.2928 1.01543e-17)
(10.6923 0.671118 0)
(5.25254 -4.34958 4.43198e-18)
(9.82945 0.0742191 -9.12889e-18)
(10.3192 0.631641 1.53701e-19)
(-1.33775 -2.9423 4.57264e-18)
(10.2459 3.92445 -1.83704e-19)
(10.27 1.24186 1.61551e-18)
(12.9026 -3.11472 -3.96911e-18)
(13.0823 3.9367 3.82653e-18)
(10.851 1.7845 -2.78154e-18)
(9.95062 0.785968 3.21502e-18)
(6.10813 1.65108 3.05659e-17)
(10.2564 1.32165 -2.17364e-19)
(10.0269 0.491256 -6.35315e-18)
(10.199 0.500847 8.64529e-19)
(10.6875 0.322116 -8.78818e-19)
(0.0285883 0.85941 1.23606e-19)
(9.85893 0.787154 -4.65866e-18)
(9.93963 0.775348 1.18701e-17)
(12.559 2.41836 0)
(8.24531 0.925253 -2.45678e-18)
(9.15798 -1.37518 7.58259e-19)
(-6.35081 -1.04565 -1.03319e-17)
(11.9579 1.10741 -2.73657e-18)
(11.1387 0.628696 -6.35737e-19)
(12.8273 -2.53756 3.451e-18)
(12.5109 0.15135 -8.19225e-19)
(10.5517 0.735679 3.71827e-19)
(10.2475 1.76523 8.36243e-20)
(10.5882 1.72118 0)
(6.68624 -2.3702 -9.1931e-18)
(10.5721 0.0573749 0)
(10.0079 1.71317 8.6354e-20)
(10.3961 0.751924 0)
(11.0236 0.2405 1.48602e-18)
(0.967975 2.30416 5.27925e-18)
(9.0079 1.36806 9.13515e-19)
(10.3796 0.997638 8.15896e-19)
(12.1308 -1.87249 2.48354e-18)
(11.1381 -0.813955 0)
(10.3892 0.216561 3.09503e-18)
(10.2205 -0.704512 2.66937e-19)
(10.0774 0.649853 -1.44586e-18)
(7.53122 3.09103 -3.94283e-18)
(9.95427 0.832865 6.16857e-18)
(10.7198 0.495448 3.7111e-19)
(10.3333 0.57297 -1.41793e-18)
(9.95938 0.866705 2.32104e-17)
(12.8876 2.21884 -1.77296e-18)
(13.9645 2.54016 -4.4599e-18)
(9.56876 1.34292 1.5429e-18)
(10.6251 0.325196 1.14499e-18)
(10.0748 0.879198 0)
(3.22396 -2.31115 9.69547e-18)
(10.6179 0.85258 -1.85521e-18)
(10.1869 0.668828 -2.04715e-19)
(9.15103 0.974824 5.20839e-18)
(8.33729 1.5795 4.68668e-18)
(11.7224 3.47172 -2.54503e-18)
(9.93656 2.38169 9.78962e-19)
(10.8544 -0.728559 -7.19649e-19)
(9.73863 1.23311 -2.31681e-18)
(11.8233 2.43798 1.75724e-17)
(11.6489 -6.29445 -4.88388e-18)
(9.44668 -1.18293 0)
(11.1272 1.33584 2.19547e-20)
(10.5206 0.445623 -6.39365e-19)
(-1.09734 1.75055 2.30256e-18)
(10.0129 1.81335 -5.2565e-20)
(-4.11248 -3.17355 -4.22884e-18)
(11.1476 1.86643 -4.04924e-18)
(-0.325198 -5.15147 -1.40819e-19)
(8.83428 -1.85235 1.51512e-18)
(10.2969 1.34591 -2.64407e-20)
(10.0341 0.691513 -1.6278e-18)
(10.6197 -2.05553 0)
(11.3433 2.30242 2.78317e-19)
(8.28457 -3.72359 -6.04144e-19)
(9.95875 0.860291 -3.73801e-17)
(7.42901 -4.58805 6.39954e-18)
(0.539879 0.389366 -2.52138e-17)
(9.63357 1.03542 -1.15458e-18)
(9.95511 0.870356 1.60203e-21)
(13.1445 -4.05131 -2.3783e-18)
(9.33999 1.8146 -4.60097e-18)
(9.92493 1.9985 -2.01016e-18)
(10.9766 0.557886 2.63065e-20)
(9.81091 1.39355 -5.15827e-18)
(8.97746 0.849847 1.17111e-17)
(10.7322 0.637854 4.62925e-19)
(-3.7683 -3.34615 3.59829e-19)
(9.92884 1.58582 -3.56336e-19)
(10.8115 0.7856 7.13574e-20)
(9.86079 1.37506 7.7323e-18)
(11.186 0.70988 0)
(10.0643 1.64645 1.17278e-17)
(10.1789 2.54041 -3.93886e-19)
(13.5476 0.9747 -5.62813e-18)
(11.0317 -2.87765 4.65791e-19)
(10.1463 1.46315 -6.18868e-20)
(12.6743 -0.0253446 -8.52536e-18)
(11.1657 -0.554231 -2.9662e-18)
(-5.47109 -2.32131 -7.59919e-18)
(10.0508 1.26553 2.70604e-18)
(10.5209 0.0303921 3.88598e-19)
(15.8237 -2.1777 -5.51059e-18)
(11.0959 0.649744 3.76528e-19)
(10.3761 1.00665 0)
(9.97085 0.730706 8.89459e-18)
(9.26874 -2.37506 0)
(9.9644 0.684705 -1.82586e-17)
(10.224 1.69821 -3.07052e-19)
(11.9208 0.789317 3.487e-19)
(4.47778 3.87547 2.29882e-18)
(12.7526 -1.45565 6.33834e-18)
(10.3041 1.69267 2.88032e-18)
(7.60619 2.28062 3.67881e-18)
(10.2913 1.30709 -8.4705e-19)
(13.4011 -0.278565 1.39759e-17)
(10.0303 0.740744 -7.77189e-19)
(10.7314 0.625355 -1.91419e-18)
(10.9718 -1.45258 -5.48474e-19)
(10.4718 1.58273 0)
(8.56252 -4.04625 7.36163e-19)
(-1.76535 -4.2975 -5.68019e-18)
(10.7239 0.666732 2.19936e-18)
(8.20792 1.81206 1.66207e-17)
(5.26156 0.35637 7.26368e-18)
(12.4286 1.25287 0)
(9.4891 0.862151 -1.7182e-18)
(1.15538 3.8833 0)
(9.94266 0.655083 -1.93429e-18)
(9.86743 0.0225477 5.30679e-18)
(8.63655 -2.95238 7.61171e-20)
(12.0785 0.779572 0)
(9.81144 0.657606 7.61873e-18)
(9.71726 1.01366 -4.8576e-18)
(10.7684 1.74737 -4.23336e-18)
(7.21723 5.89489 3.98863e-18)
(11.9424 4.74042 -9.04134e-18)
(10.8008 -1.84366 -1.84731e-19)
(7.10305 0.243364 5.83559e-18)
(10.1542 0.572522 1.51679e-18)