/*--------------------------------*- C++ -*----------------------------------*\
  =========                 |
  \\      /  F ield         | OpenFOAM: The Open Source CFD Toolbox
   \\    /   O peration     | Website:  https://openfoam.org
    \\  /    A nd           | Version:  7
     \\/     M anipulation  |
\*---------------------------------------------------------------------------*/
FoamFile
{
    version     2.0;
    format      ascii;
    class       volScalarField;
    location    "400";
    object      nut;
}
// * * * * * * * * * * * * * * * * * * * * * * * * * * * * * * * * * * * * * //

dimensions      [0 2 -1 0 0 0 0];

internalField   nonuniform List<scalar> 
11372
(
0.0592181
0.0191569
0.104665
0.139557
0.105355
0.026405
0.127147
0.0512136
0.103533
0.0741817
0.132358
0.111494
0.093342
0.13854
0.203127
0.119602
0.113842
0.121947
0.135868
0.137584
0.0959699
0.14354
0.019897
0.0135988
0.129446
0.253383
0.186629
0.135638
0.138692
0.138508
0.136319
0.139777
0.0968294
0.138662
0.0631243
0.144156
0.140602
0.10863
0.098354
0.117661
0.0535823
0.138901
0.141349
0.108879
0.140035
0.0738112
0.130819
0.242291
0.00617418
0.130358
0.013315
0.129819
0.0603694
0.124217
0.138017
0.131472
0.107306
0.0124181
0.127293
0.119228
0.0773539
0.152271
0.144397
0.032262
0.220434
0.143914
0.107303
0.211929
0.0734668
0.0764747
0.138775
0.13832
0.141167
0.12459
0.0973601
0.139519
0.172495
0.137031
0.139931
0.0361767
0.251367
0.0223651
0.00271849
0.101209
0.0135149
0.0285501
0.141766
0.11437
0.133142
0.0654201
0.141728
0.131785
0.0635643
0.111413
0.139297
0.285192
0.101585
0.283004
0.166846
0.141312
0.140254
0.127557
0.140058
0.138752
0.137701
0.0341218
0.0334568
0.13961
0.140799
0.13409
0.137267
0.131432
0.0466389
0.139516
0.272179
0.140438
0.0469642
0.140475
0.138145
0.275281
0.260872
0.0583107
0.300539
0.140192
0.120688
0.138051
0.12819
0.0943833
0.124663
0.0422839
0.0924217
0.113974
0.0115716
0.0976014
0.0983775
0.140064
0.125805
0.277822
0.0205914
0.13977
0.238268
0.139719
0.0895217
0.0797277
0.104613
0.0746675
0.163069
0.134501
0.137146
0.0266343
0.139276
0.0623309
0.122607
0.0484375
0.140087
0.141928
0.121971
0.132206
0.276206
0.137115
0.138347
0.138616
0.0446572
0.139648
0.0158784
0.116442
0.0935712
0.150204
0.140792
0.14238
0.186914
0.146553
0.082384
0.095715
0.100321
0.0571325
0.128628
0.242251
0.0422403
0.13989
0.102235
0.137034
0.0487289
0.0873904
0.192292
0.0276108
0.103993
0.0424387
0.128976
0.0160219
0.136207
0.138985
0.128726
0.120973
0.103963
0.115183
0.218423
0.138369
0.0762915
0.117959
0.138745
0.134397
0.136186
0.302724
0.139908
0.135048
0.140986
0.129576
0.12921
0.126032
0.029204
0.132845
0.109065
0.137576
0.139227
0.106892
0.138642
0.137317
0.137425
0.114967
0.0663118
0.137814
0.0208499
0.00122215
0.139462
0.0929224
0.00140029
0.141487
0.139502
0.13288
0.131795
0.138165
0.102173
0.141166
0.102355
0.0554309
0.075942
0.273261
0.112738
0.108473
0.139923
0.0431426
0.114338
0.140793
0.105316
0.136894
0.136877
0.10645
0.136765
0.0520446
0.129809
0.144685
0.0128971
0.110629
0.0321131
0.135378
0.136269
0.140513
0.129809
0.138083
0.0716325
0.139251
0.231615
0.13835
0.0955223
0.118372
0.150375
0.194606
0.0036245
0.120534
0.00269462
0.0858207
0.114665
0.105726
0.105227
0.0855426
0.137994
0.141366
0.133648
0.237808
0.112768
0.130782
0.136109
0.136364
0.0361628
0.141275
0.205219
0.00179795
0.143921
0.22218
0.161983
0.139569
0.189401
0.141041
0.0966443
0.139318
0.138053
0.14018
0.113664
0.056727
0.140014
0.0758849
0.0556307
0.2538
0.137051
0.110927
0.033473
0.128053
0.140015
0.131792
0.0512802
0.139985
0.287064
0.0192519
0.140694
0.134574
0.164237
0.111017
0.11465
0.0296037
0.124717
0.102126
0.101449
0.137451
0.138613
0.0854751
0.0783654
0.118936
0.0942992
0.127079
0.287018
0.138477
0.0868463
0.0564531
0.0913857
0.100689
0.142807
0.052662
0.133559
0.123746
0.168852
0.184729
0.135084
0.137161
0.14185
0.0968423
0.142418
0.132449
0.12244
0.139963
0.0179778
0.110518
0.131201
0.119965
0.136623
0.0450221
0.110191
0.131998
0.0917174
0.139342
0.142983
0.122626
0.133199
0.179917
0.140663
0.042243
0.108008
0.0943096
0.125357
0.137341
0.137928
0.112513
0.0715867
0.158984
0.116724
0.123804
0.11188
0.139085
0.0336725
0.0993159
0.140339
0.138093
0.132612
0.113744
0.136227
0.0554409
0.111905
0.129235
0.0903371
0.134675
0.0857317
0.0220646
0.14029
0.130082
0.140742
0.126125
0.143895
0.0138754
0.0640026
0.0793216
0.133694
0.1416
0.114054
0.133604
0.124011
0.142649
0.0651159
0.242658
0.130786
0.132433
0.14003
0.295024
0.13848
0.00972226
0.0396012
0.0127142
0.033597
0.121444
0.140615
0.138832
0.266819
0.14237
0.140222
0.0163367
0.137009
0.140065
0.0170116
0.101377
0.132224
0.140009
0.138535
0.141222
0.141632
0.0031658
0.261242
0.140728
0.293089
0.137805
0.0184285
0.120891
0.0931931
0.13822
0.140131
0.12969
0.140967
0.137238
0.00280216
0.138674
0.0225005
0.102698
0.141823
0.0798758
0.127545
0.129875
0.103884
0.101939
0.244719
0.045105
0.138521
0.130356
0.278104
0.117012
0.0700289
0.112477
0.163056
0.0611756
0.128855
0.0486998
0.267222
0.107621
0.125911
0.126686
0.137924
0.0786887
0.0883809
0.108259
0.1018
0.143354
0.141573
0.157508
0.137634
0.040248
0.0109165
0.140651
0.141267
0.0051347
0.264635
0.0920247
0.137699
0.140894
0.0296726
0.144018
0.139152
0.14499
0.120702
0.121507
0.125828
0.142976
0.13834
0.139418
0.140162
0.0274566
0.0589678
0.132285
0.134359
0.134265
0.0111313
0.140612
0.01917
0.111907
0.0605878
0.0913866
0.115506
0.139922
0.140076
0.139962
0.13188
0.110691
0.125143
0.123206
0.0807998
0.140838
0.300109
0.129567
0.129295
0.138359
0.0515462
0.140961
0.0251297
0.12443
0.133748
0.140789
0.136085
0.116882
0.142081
0.183026
0.123734
0.141838
0.0661235
0.137597
0.129308
0.0312851
0.0989086
0.131147
0.118433
0.125966
0.125715
0.12103
0.059833
0.0408571
0.140925
0.122308
0.0881884
0.138751
0.135633
0.140198
0.0992491
0.140024
0.133011
0.27765
0.139761
0.140364
0.14298
0.0967691
0.271916
0.131547
0.0984296
0.0904772
0.101459
0.301106
0.14152
0.108226
0.140276
0.013297
0.139479
0.121772
0.0579638
0.0139631
0.141288
0.136636
0.246824
0.124216
0.0381517
0.168203
0.102673
0.140322
0.0157628
0.141883
0.0018009
0.141764
0.236741
0.129426
0.301349
0.0089665
0.292977
0.12395
0.113781
0.112102
0.0405802
0.0406615
0.110327
0.10656
0.140307
0.00773121
0.104917
0.195169
0.143901
0.302616
0.14081
0.11474
0.039817
0.141983
0.138263
0.140344
0.0482393
0.0800683
0.0415318
0.116941
0.101974
0.218904
0.0357341
0.0692174
0.129817
0.129957
0.134647
0.135392
0.0837969
0.102806
0.0496742
0.133876
0.076992
0.138998
0.10307
0.141017
0.0892067
0.084486
0.0334312
0.140024
0.124255
0.127254
0.138935
0.119447
0.145963
0.140834
0.137707
0.141144
0.130369
0.0683327
0.0396454
0.137568
0.139146
0.0831569
0.135593
0.0119129
0.140536
0.178435
0.140021
0.0173354
0.134914
0.0153762
0.146637
0.13314
0.134805
0.0297703
0.269928
0.026226
0.0786475
0.094394
0.129877
0.280981
0.0864677
0.0144198
0.138135
0.137927
0.28809
0.275315
0.14231
0.140481
0.13381
0.0753198
0.132747
0.128621
0.113966
0.0492064
0.0500733
0.141762
0.141603
0.0890807
0.126479
0.0714007
0.140161
0.14013
0.140293
0.12388
0.119086
0.104524
0.108543
0.139419
0.101853
0.142363
0.00124889
0.112323
0.0798416
0.094578
0.131394
0.140447
0.140287
0.140338
0.136616
0.138636
0.0352724
0.0256968
0.140364
0.262361
0.113117
0.135035
0.141628
0.105459
0.120493
0.137293
0.0556067
0.117561
0.123725
0.106367
0.0493076
0.140367
0.141302
0.111171
0.139131
0.125522
0.0253476
0.140576
0.0950774
0.123213
0.137027
0.0910763
0.107181
0.0899185
0.135397
0.142118
0.119044
0.0374626
0.120093
0.111332
0.0904374
0.126538
0.129787
0.0446562
0.212936
0.215474
0.031993
0.0311426
0.0840537
0.125632
0.0898698
0.139077
0.133128
0.140465
0.207776
0.262621
0.10922
0.0313366
0.0727943
0.137346
0.138283
0.224556
0.137819
0.143716
0.0830306
0.280364
0.00142585
0.14029
0.062831
0.142325
0.113786
0.139587
0.0324744
0.109204
0.11752
0.14005
0.257136
0.013858
0.132963
0.0206344
0.127164
0.0245969
0.139753
0.0121532
0.0132116
0.0566247
0.126668
0.139467
0.140633
0.126005
0.0562231
0.102557
0.118811
0.053888
0.13474
0.0823706
0.13564
0.136231
0.128882
0.00779618
0.0187716
0.0992162
0.116184
0.140188
0.0412766
0.109707
0.140159
0.0195325
0.0980449
0.100859
0.140092
0.139156
0.26499
0.114498
0.140354
0.187194
0.0840707
0.00873714
0.0643446
0.011411
0.140994
0.117769
0.0140443
0.0708317
0.0901807
0.141511
0.0215972
0.13142
0.133362
0.127584
0.140905
0.0673057
0.0132749
0.0883491
0.121403
0.133184
0.0660121
0.251857
0.299379
0.0818355
0.136008
0.132268
0.092634
0.124336
0.0976731
0.134519
0.0104129
0.105593
0.108269
0.0989617
0.131468
0.0648976
0.126498
0.0649707
0.137103
0.141131
0.0207183
0.114178
0.142358
0.088887
0.0647142
0.131632
0.140118
0.109704
0.143139
0.140185
0.140687
0.0941002
0.287198
0.138531
0.140118
0.0852894
0.129211
0.125494
0.238882
0.111545
0.126964
0.0957236
0.0692988
0.142952
0.138708
0.132844
0.102912
0.138743
0.106631
0.146263
0.138055
0.300861
0.15523
0.141807
0.111051
0.129279
0.140007
0.132413
0.140461
0.1155
0.140008
0.108696
0.140938
0.139947
0.048662
0.0457783
0.103403
0.0920703
0.140431
0.130361
0.141699
0.140997
0.134323
0.12824
0.104992
0.132416
0.131046
0.103663
0.105396
0.0559441
0.127633
0.135347
0.14085
0.257408
0.13762
0.13458
0.127613
0.032277
0.120688
0.122179
0.140365
0.119854
0.124515
0.09927
0.139901
0.0830562
0.0184331
0.1519
0.139837
0.0738863
0.133928
0.135681
0.126266
0.139302
0.133409
0.131108
0.126951
0.139134
0.139965
0.139824
0.128633
0.139221
0.130738
0.0719991
0.109489
0.113292
0.0626314
0.130708
0.189539
0.140652
0.138549
0.0362771
0.128879
0.142461
0.140183
0.117268
0.140162
0.118341
0.127671
0.0732299
0.105653
0.123083
0.246466
0.143413
0.0936545
0.140372
0.141003
0.124119
0.14013
0.0964097
0.0811151
0.141108
0.126681
0.100176
0.114232
0.136241
0.295307
0.140016
0.137109
0.109592
0.102149
0.138242
0.138307
0.133189
0.0791494
0.16181
0.121236
0.120123
0.140613
0.232111
0.108243
0.103946
0.138738
0.135104
0.135775
0.0978157
0.118123
0.140656
0.0581302
0.140002
0.121617
0.0952764
0.141261
0.129405
0.147669
0.043577
0.109257
0.134562
0.123248
0.112468
0.139948
0.0816745
0.140169
0.0999112
0.140119
0.138683
0.0295281
0.261547
0.131196
0.134313
0.13154
0.260327
0.287824
0.138079
0.270244
0.139215
0.11364
0.195313
0.141174
0.129044
0.11635
0.265831
0.135883
0.140343
0.0958693
0.0577973
0.0955594
0.107686
0.075719
0.14105
0.0906349
0.14663
0.140186
0.128982
0.133976
0.137514
0.184439
0.0412539
0.140234
0.136395
0.117887
0.136178
0.0861356
0.119174
0.139828
0.0379847
0.0493121
0.14
0.126246
0.0987307
0.301562
0.0615707
0.0015165
0.131514
0.121225
0.108295
0.0598637
0.147287
0.0928282
0.108058
0.142441
0.0585955
0.130506
0.113926
0.118148
0.133591
0.132867
0.0730687
0.140393
0.134124
0.126383
0.0363727
0.130637
0.043588
0.14018
0.0801755
0.125796
0.0373144
0.0386538
0.13498
0.125269
0.139878
0.0942746
0.108365
0.0623293
0.279715
0.204361
0.300863
0.0668024
0.139012
0.136572
0.0104556
0.0751611
0.00565418
0.0672752
0.127623
0.0951524
0.1353
0.119893
0.140163
0.128365
0.137153
0.291835
0.0295056
0.13676
0.0741874
0.144287
0.137108
0.12739
0.041505
0.0987953
0.14345
0.140067
0.142108
0.120133
0.138192
0.134689
0.231307
0.226592
0.14079
0.0172312
0.138655
0.0638339
0.131708
0.25929
0.118252
0.129857
0.142626
0.0701881
0.0149811
0.142857
0.00767373
0.00348489
0.0734735
0.141525
0.151434
0.155185
0.139846
0.138
0.137862
0.0736838
0.125568
0.140283
0.116463
0.140003
0.140048
0.0216529
0.184506
0.124716
0.140299
0.0799547
0.141612
0.119793
0.134985
0.0917464
0.0868851
0.105198
0.130207
0.0959094
0.135695
0.125758
0.14374
0.111502
0.125762
0.128932
0.130732
0.0958339
0.129583
0.132844
0.110624
0.0953713
0.0835381
0.0134646
0.142643
0.133452
0.135058
0.140135
0.0530391
0.0691685
0.140454
0.0204609
0.130522
0.260447
0.0699472
0.158053
0.103567
0.245706
0.114709
0.0842348
0.140771
0.139481
0.0949344
0.130126
0.0581606
0.0379879
0.139874
0.13814
0.143339
0.241485
0.127874
0.0986618
0.0846275
0.0868067
0.138191
0.0846243
0.137073
0.0110004
0.116269
0.0314798
0.0815117
0.142631
0.141239
0.297591
0.224442
0.103094
0.0618717
0.137655
0.246137
0.130043
0.0340379
0.0184393
0.244747
0.0462309
0.1407
0.0538672
0.0688554
0.139345
0.138559
0.00617217
0.137662
0.143794
0.141839
0.0948598
0.137638
0.00132519
0.135964
0.140827
0.133005
0.0795348
0.0930059
0.140017
0.09542
0.125065
0.120411
0.041593
0.232766
0.140318
0.0657749
0.0947772
0.0877596
0.109353
0.0942222
0.136814
0.286657
0.139532
0.0162197
0.135057
0.293389
0.11702
0.107697
0.140565
0.0135668
0.0984408
0.130628
0.0712804
0.00580323
0.121465
0.131538
0.0673534
0.139004
0.135951
0.141492
0.139954
0.119252
0.0812394
0.138847
0.0907754
0.0848353
0.136257
0.0245067
0.140198
0.106775
0.0948435
0.141772
0.297974
0.136149
0.0744267
0.140227
0.0785661
0.247592
0.136721
0.14069
0.140097
0.0866647
0.127811
0.285608
0.134224
0.141082
0.140872
0.138292
0.121565
0.139924
0.114706
0.144594
0.0160934
0.143184
0.141591
0.0149863
0.140192
0.127998
0.135032
0.0232477
0.116329
0.0409557
0.100193
0.142729
0.106832
0.114327
0.14554
0.0242796
0.0794802
0.13774
0.10619
0.10892
0.0339683
0.138753
0.0939113
0.0718611
0.132281
0.095013
0.124663
0.141157
0.254412
0.135637
0.0876889
0.297058
0.0020085
0.126267
0.141743
0.281447
0.139535
0.0183311
0.133464
0.0813158
0.112538
0.139844
0.141125
0.125562
0.132385
0.140386
0.119483
0.302695
0.146125
0.079218
0.230964
0.056
0.138809
0.0603038
0.134765
0.133924
0.0511263
0.136594
0.140151
0.116803
0.0881042
0.140808
0.116609
0.140681
0.111167
0.132538
0.0826823
0.12321
0.108575
0.141048
0.0472065
0.112911
0.0697967
0.134362
0.00254884
0.287107
0.0899607
0.113695
0.135583
0.0570662
0.112737
0.199015
0.0327056
0.0221331
0.140053
0.0847992
0.0185265
0.126552
0.1347
0.283064
0.118435
0.0367845
0.00958417
0.00478945
0.104264
0.138695
0.129582
0.140643
0.141588
0.138725
0.00780881
0.127791
0.0981074
0.127731
0.0946616
0.188225
0.0120198
0.138332
0.0280994
0.138293
0.30215
0.137183
0.101574
0.0916185
0.139495
0.139597
0.138045
0.139232
0.0156553
0.08329
0.126378
0.0796884
0.0329124
0.135857
0.135966
0.139952
0.13267
0.034152
0.0913009
0.130674
0.302553
0.14031
0.137232
0.0861583
0.141767
0.140686
0.147388
0.139723
0.0211681
0.122791
0.122715
0.182993
0.113635
0.257825
0.0182662
0.14152
0.125728
0.0696868
0.139426
0.130838
0.138341
0.107202
0.111589
0.13315
0.274521
0.262456
0.130045
0.100569
0.138761
0.049692
0.0245825
0.0870554
0.0168723
0.122877
0.0710879
0.00425275
0.140604
0.119846
0.140003
0.182598
0.0695712
0.13127
0.141278
0.105833
0.069352
0.0623294
0.0701588
0.138075
0.134237
0.110164
0.253421
0.0238784
0.12809
0.00315718
0.140611
0.295203
0.0832565
0.298058
0.094527
0.11135
0.0783056
0.120483
0.140025
0.027974
0.101535
0.0817436
0.129627
0.140682
0.137202
0.140161
0.136689
0.135985
0.0982809
0.119961
0.142202
0.135019
0.13106
0.145691
0.140936
0.128881
0.136943
0.107635
0.0822242
0.0150931
0.0883604
0.141205
0.0915859
0.0524901
0.0073272
0.114583
0.0987495
0.0751834
0.120123
0.140797
0.14063
0.0205064
0.246005
0.126121
0.124839
0.119007
0.143682
0.117356
0.13615
0.139062
0.186489
0.0986503
0.139765
0.00580769
0.300516
0.0815818
0.13763
0.112713
0.141554
0.0586711
0.137342
0.1407
0.140529
0.300802
0.139396
0.0299102
0.120411
0.140129
0.0137329
0.0112916
0.111494
0.141911
0.139911
0.140392
0.139868
0.144261
0.142032
0.08272
0.0178285
0.096608
0.143452
0.298731
0.0181615
0.121202
0.103653
0.11539
0.137791
0.140575
0.137956
0.0715583
0.0647254
0.0129323
0.258114
0.140783
0.19578
0.0981413
0.140421
0.276864
0.140442
0.103137
0.140204
0.245709
0.0640395
0.0845707
0.140757
0.136864
0.131183
0.136781
0.103814
0.140232
0.107254
0.140515
0.120678
0.0936064
0.141349
0.139921
0.11722
0.127746
0.0436566
0.108748
0.127022
0.110228
0.236469
0.137184
0.140182
0.0524409
0.141033
0.123939
0.11706
0.138039
0.140967
0.117932
0.12847
0.141371
0.0900455
0.140332
0.137445
0.011984
0.126076
0.101401
0.0168628
0.139963
0.200342
0.137602
0.139305
0.144368
0.00248196
0.139994
0.125856
0.140056
0.137099
0.161165
0.138637
0.0699339
0.136679
0.0240134
0.107584
0.139408
0.0216358
0.0430787
0.111873
0.140625
0.094872
0.291518
0.12096
0.141513
0.105139
0.111586
0.104155
0.139914
0.11729
0.0666114
0.0492207
0.107636
0.142495
0.13594
0.126837
0.0408155
0.0545072
0.138603
0.122844
0.125449
0.135921
0.282604
0.138111
0.107236
0.142791
0.13963
0.142156
0.143249
0.0628939
0.13528
0.125163
0.212219
0.102923
0.141182
0.083332
0.260581
0.0185955
0.278203
0.140042
0.140268
0.0589576
0.122734
0.113943
0.135032
0.141707
0.0119568
0.103441
0.140883
0.115778
0.0296978
0.279546
0.140031
0.134881
0.139725
0.0122487
0.0892234
0.158024
0.117592
0.0874583
0.117491
0.111966
0.128085
0.134462
0.0201621
0.01285
0.160447
0.140134
0.110084
0.116368
0.114558
0.0878324
0.214686
0.140369
0.12247
0.131766
0.123865
0.0932428
0.139529
0.141036
0.127448
0.289546
0.131492
0.139995
0.168736
0.204716
0.126289
0.138718
0.143401
0.187327
0.0909469
0.120672
0.0952509
0.142435
0.139302
0.0942485
0.0160179
0.0838624
0.141401
0.134537
0.0596521
0.135446
0.139657
0.12891
0.130987
0.139753
0.125193
0.140386
0.129822
0.053204
0.223603
0.0117176
0.0092826
0.275211
0.122641
0.0440389
0.0800509
0.143516
0.130388
0.141072
0.140466
0.292065
0.139327
0.0339026
0.142401
0.206031
0.141697
0.125997
0.132293
0.113003
0.110257
0.135645
0.128126
0.0765026
0.105373
0.136673
0.109331
0.099593
0.141943
0.12852
0.14767
0.134497
0.0288983
0.139968
0.13736
0.0851651
0.119822
0.0109305
0.0729594
0.134471
0.036077
0.141349
0.143572
0.142232
0.066865
0.0557975
0.140097
0.130155
0.0176971
0.0956142
0.133919
0.145981
0.11299
0.0673185
0.240649
0.112881
0.0073126
0.290528
0.113222
0.163877
0.115698
0.124452
0.140201
0.13946
0.225614
0.103487
0.140599
0.0604506
0.0574797
0.0713567
0.142751
0.152733
0.12334
0.271977
0.0935688
0.140735
0.138371
0.0210708
0.0486402
0.139211
0.12789
0.0654396
0.0862385
0.130913
0.132323
0.140176
0.0919729
0.140754
0.138919
0.125489
0.140876
0.131331
0.136256
0.0204616
0.0342736
0.12624
0.123888
0.140232
0.13839
0.00485766
0.140942
0.0287274
0.298651
0.138806
0.137617
0.140716
0.139237
0.091036
0.136601
0.0160638
0.0606373
0.0455672
0.140487
0.117319
0.0341741
0.14098
0.130628
0.137263
0.119291
0.141596
0.13577
0.0431201
0.12005
0.040785
0.154919
0.0586956
0.104658
0.140153
0.0181513
0.140115
0.141124
0.133964
0.120217
0.10681
0.0459656
0.138403
0.0774998
0.111668
0.116496
0.0312759
0.127312
0.226599
0.0507553
0.0547027
0.112238
0.114226
0.0764747
0.14092
0.0397376
0.127994
0.122383
0.0129274
0.140709
0.00961742
0.140457
0.14078
0.139242
0.129399
0.133353
0.135758
0.133821
0.13993
0.135203
0.12069
0.139081
0.0977171
0.114245
0.108007
0.0737744
0.282244
0.0675363
0.140638
0.137855
0.138504
0.138268
0.116205
0.0508352
0.137834
0.0231238
0.140804
0.140849
0.116582
0.138953
0.13897
0.194193
0.0876821
0.140137
0.0821504
0.11721
0.109612
0.0667222
0.172824
0.00633817
0.0499766
0.106361
0.133206
0.118067
0.138279
0.137995
0.121165
0.0114517
0.138459
0.124026
0.0284597
0.196071
0.107131
0.197007
0.186589
0.138367
0.119608
0.140567
0.13358
0.0117273
0.0434413
0.0443889
0.0613129
0.140644
0.141649
0.141119
0.0146716
0.020755
0.139045
0.0742403
0.140771
0.0913172
0.283002
0.124832
0.137385
0.163361
0.139717
0.124272
0.0754414
0.1412
0.0733015
0.0886349
0.0966421
0.0578861
0.106813
0.116954
0.140109
0.0493562
0.0858377
0.13994
0.130557
0.137358
0.13348
0.139236
0.199443
0.085327
0.00914893
0.143104
0.0660751
0.0246582
0.138393
0.141231
0.127895
0.132391
0.0228857
0.0811864
0.0265651
0.0176616
0.228112
0.109998
0.0788483
0.137423
0.0159604
0.133017
0.0135287
0.141655
0.00302632
0.0845882
0.0665324
0.142773
0.140051
0.0988496
0.00796392
0.0971627
0.14072
0.13897
0.124317
0.163572
0.140666
0.129218
0.0883576
0.138958
0.0635493
0.120499
0.134297
0.121901
0.108943
0.263358
0.140815
0.118922
0.117205
0.138454
0.136065
0.142014
0.134598
0.14063
0.121283
0.142076
0.0431047
0.135245
0.135751
0.0138262
0.140206
0.13973
0.265276
0.134165
0.125503
0.141827
0.0827185
0.0383708
0.168258
0.115353
0.0620741
0.0689653
0.140332
0.0275058
0.140968
0.116442
0.302912
0.143758
0.110848
0.138537
0.150864
0.125865
0.043994
0.217129
0.0850692
0.0731101
0.118635
0.0915893
0.129999
0.103661
0.0977007
0.125216
0.020011
0.117258
0.126321
0.130416
0.105781
0.121348
0.140906
0.121686
0.0125555
0.165727
0.0714606
0.115104
0.107222
0.138907
0.109682
0.23777
0.135003
0.143335
0.0137308
0.130552
0.104636
0.101826
0.061422
0.140828
0.120156
0.11824
0.0417456
0.140082
0.123073
0.135423
0.0973694
0.216939
0.138061
0.0369129
0.118859
0.2962
0.217857
0.05959
0.132811
0.13688
0.113873
0.108094
0.140518
0.141311
0.0885095
0.118665
0.301458
0.137578
0.142186
0.0881326
0.298381
0.129416
0.0110613
0.142873
0.130336
0.0699812
0.129721
0.0159845
0.133169
0.0938815
0.0210153
0.137671
0.139409
0.0513364
0.141772
0.143539
0.140054
0.110143
0.12819
0.142362
0.141376
0.092764
0.142563
0.136096
0.291902
0.117719
0.140659
0.1395
0.128388
0.141029
0.141139
0.143703
0.104442
0.113725
0.121839
0.117221
0.043569
0.0828281
0.140679
0.110226
0.13396
0.14023
0.155726
0.0946586
0.0440859
0.0916111
0.128324
0.228978
0.102677
0.143054
0.0952006
0.0171839
0.137869
0.136442
0.111213
0.0982852
0.012974
0.0511163
0.00432264
0.0538239
0.141128
0.137151
0.140164
0.0560305
0.134588
0.0532383
0.136765
0.13415
0.136783
0.142987
0.138452
0.137498
0.135632
0.278017
0.14028
0.126039
0.0228483
0.142667
0.138043
0.240111
0.103187
0.142413
0.102475
0.140178
0.0960721
0.136908
0.0803772
0.140155
0.0254029
0.127115
0.136969
0.256213
0.141829
0.282965
0.290965
0.0988834
0.101848
0.112167
0.133673
0.11326
0.140441
0.122072
0.114716
0.126782
0.140261
0.130586
0.140005
0.0721496
0.033224
0.08889
0.246406
0.140715
0.0834363
0.140232
0.133082
0.00883461
0.292044
0.0978256
0.0898212
0.0989779
0.139087
0.124701
0.136039
0.1232
0.132401
0.110434
0.138212
0.140315
0.118918
0.162764
0.143769
0.127887
0.120225
0.131431
0.0462748
0.134657
0.182966
0.115429
0.115024
0.0205965
0.128935
0.0706263
0.140843
0.141695
0.0241325
0.115073
0.12471
0.144513
0.0415096
0.13583
0.139032
0.131861
0.113647
0.0925099
0.142234
0.0745111
0.143662
0.00974186
0.0167268
0.0689118
0.0699134
0.140439
0.133211
0.142821
0.125613
0.0088889
0.139514
0.141895
0.130265
0.137758
0.113786
0.137218
0.0354162
0.134932
0.140331
0.294859
0.290134
0.124715
0.140297
0.107114
0.140424
0.131883
0.130949
0.080623
0.138221
0.141292
0.139386
0.114819
0.137871
0.0207694
0.0571025
0.0857703
0.140335
0.141268
0.0542967
0.118755
0.096304
0.130614
0.237036
0.0206576
0.0633326
0.130801
0.116846
0.140562
0.0302068
0.13689
0.132105
0.290367
0.0782515
0.126416
0.112072
0.101078
0.0595452
0.0751235
0.14178
0.00788
0.109891
0.302813
0.203281
0.139878
0.108343
0.140773
0.138102
0.293704
0.0292573
0.261061
0.1416
0.112456
0.138633
0.0432396
0.100881
0.136194
0.00814379
0.143794
0.136487
0.276437
0.141246
0.0210335
0.0939314
0.0387114
0.13904
0.141436
0.130057
0.0107958
0.237883
0.00679406
0.117466
0.101789
0.128322
0.293412
0.115803
0.139454
0.110092
0.136865
0.135937
0.139041
0.0198321
0.0824568
0.141978
0.138497
0.11381
0.140232
0.128152
0.14183
0.107799
0.138467
0.140593
0.123553
0.026206
0.100947
0.139629
0.14405
0.108818
0.0998604
0.143731
0.105391
0.104662
0.0320026
0.130602
0.0414315
0.0299968
0.063591
0.124599
0.0892232
0.277238
0.0914795
0.0858886
0.06216
0.0113068
0.122277
0.137985
0.0773882
0.099814
0.129092
0.0864356
0.139574
0.137269
0.134701
0.113439
0.0384936
0.140555
0.135826
0.138361
0.140729
0.141616
0.141328
0.0425225
0.0812171
0.133771
0.132131
0.106462
0.13773
0.122962
0.0134977
0.119087
0.140228
0.135646
0.0933249
0.138789
0.177152
0.0131696
0.116762
0.29789
0.145367
0.0437998
0.139026
0.122255
0.204776
0.0103515
0.118124
0.0438178
0.301318
0.140831
0.102365
0.111541
0.13234
0.128717
0.131034
0.0140335
0.104005
0.140831
0.140225
0.140199
0.135901
0.088403
0.00989245
0.131449
0.134757
0.137071
0.14051
0.145112
0.034972
0.0482777
0.109457
0.242301
0.138356
0.0787614
0.0617482
0.282401
0.280261
0.0303977
0.029396
0.142664
0.137261
0.1185
0.140058
0.30041
0.137335
0.00892785
0.0499942
0.107588
0.0364652
0.135025
0.140354
0.0737171
0.141732
0.120541
0.0388286
0.111273
0.13918
0.131974
0.206661
0.1348
0.0828667
0.12449
0.135931
0.139891
0.123191
0.0500392
0.124781
0.141721
0.14105
0.110553
0.140564
0.291489
0.124283
0.0880764
0.0151072
0.138622
0.121308
0.104965
0.139907
0.127502
0.098938
0.12382
0.0231068
0.124027
0.120066
0.135181
0.136248
0.132952
0.103914
0.261089
0.184882
0.138083
0.0392779
0.121355
0.253547
0.137934
0.129593
0.107066
0.126866
0.0892371
0.118459
0.0921738
0.135389
0.0884046
0.134533
0.139218
0.0231473
0.104984
0.131957
0.0120237
0.140815
0.13122
0.137181
0.11316
0.063623
0.138511
0.113773
0.132911
0.135132
0.145247
0.101768
0.105499
0.114568
0.140434
0.134697
0.0646047
0.0276566
0.125358
0.111999
0.0368035
0.138144
0.157052
0.133999
0.0350665
0.0388846
0.134235
0.130471
0.276907
0.066587
0.140242
0.140018
0.121293
0.126499
0.209934
0.140541
0.142259
0.137554
0.138145
0.0731802
0.253685
0.138131
0.137171
0.111961
0.139614
0.093005
0.303025
0.0642424
0.13353
0.0231381
0.0177379
0.143429
0.0949118
0.140248
0.207074
0.0768827
0.100917
0.139794
0.140632
0.133107
0.052065
0.131344
0.0212874
0.0425382
0.118824
0.0125769
0.250102
0.141009
0.113579
0.14014
0.0344008
0.115774
0.143323
0.140453
0.200355
0.140695
0.0452282
0.131582
0.109136
0.0904153
0.136734
0.130797
0.0357397
0.0617124
0.0681574
0.0765578
0.0981631
0.0822233
0.233697
0.140066
0.125944
0.134918
0.122019
0.112018
0.1358
0.129105
0.133035
0.127132
0.142056
0.0494947
0.0780662
0.138223
0.143004
0.140086
0.130674
0.101405
0.137208
0.223198
0.107495
0.00253069
0.137269
0.137624
0.104233
0.0903922
0.133776
0.115597
0.0340824
0.0854349
0.140258
0.13476
0.142398
0.144004
0.102518
0.135784
0.0672838
0.132025
0.13215
0.0607941
0.0772856
0.138287
0.142806
0.0668793
0.122975
0.0407177
0.140282
0.0390755
0.110389
0.289696
0.139878
0.0531423
0.140976
0.107423
0.0296336
0.112187
0.289734
0.141931
0.0110626
0.130721
0.133727
0.139323
0.120723
0.142018
0.113837
0.113366
0.106844
0.120939
0.114114
0.0652416
0.137534
0.112917
0.136193
0.0584674
0.0931401
0.138033
0.176562
0.104836
0.140481
0.140855
0.0126471
0.0838715
0.133317
0.0587674
0.11008
0.141982
0.137528
0.129789
0.0716306
0.141484
0.0721524
0.0611096
0.0243222
0.178711
0.141299
0.0759691
0.0694688
0.0526009
0.128708
0.0324879
0.102548
0.137761
0.135902
0.140201
0.132778
0.0956745
0.0755545
0.0663286
0.136038
0.0767229
0.204324
0.0628873
0.14247
0.0882385
0.0997919
0.134178
0.140348
0.136474
0.269541
0.138917
0.139344
0.127286
0.138127
0.0174332
0.123144
0.115374
0.0917246
0.133402
0.125513
0.116495
0.132209
0.293188
0.105864
0.124011
0.121198
0.302271
0.130089
0.0695656
0.286084
0.129123
0.197384
0.296081
0.212954
0.141267
0.237209
0.141536
0.1381
0.120448
0.114349
0.141155
0.140236
0.30261
0.129344
0.140301
0.13786
0.140357
0.0281906
0.122415
0.136814
0.0891967
0.121251
0.134008
0.141176
0.134556
0.140525
0.0921313
0.140039
0.272535
0.14021
0.140035
0.0245673
0.0202771
0.140102
0.130192
0.140197
0.101764
0.144403
0.0365279
0.135955
0.141663
0.140403
0.142105
0.0406922
0.131534
0.119069
0.135637
0.150154
0.140023
0.0648155
0.142781
0.0199189
0.0434137
0.169052
0.214173
0.111798
0.00561281
0.140609
0.11276
0.0956077
0.125741
0.141211
0.139746
0.138995
0.0600389
0.301435
0.118173
0.129544
0.252302
0.138444
0.138644
0.139891
0.129961
0.0242154
0.0376032
0.122429
0.00626501
0.102745
0.128798
0.120447
0.139735
0.143076
0.139794
0.12792
0.0600666
0.0321068
0.139035
0.140073
0.0356061
0.155926
0.138845
0.141626
0.247628
0.135292
0.1371
0.074935
0.132967
0.142002
0.162043
0.121235
0.061041
0.125541
0.120285
0.0162323
0.0483166
0.0658513
0.0216568
0.138434
0.138909
0.0426245
0.0122744
0.0772993
0.200143
0.106047
0.129854
0.11902
0.124845
0.00962149
0.144025
0.134059
0.0251131
0.140126
0.123964
0.141203
0.270705
0.258452
0.0419363
0.140956
0.131515
0.108006
0.0191739
0.207073
0.13489
0.14258
0.141752
0.0571637
0.136064
0.122202
0.13776
0.0623502
0.0641964
0.108618
0.179871
0.138625
0.140414
0.137223
0.140337
0.0789573
0.135515
0.131292
0.0732575
0.125604
0.114103
0.00621059
0.143316
0.13905
0.121779
0.0341543
0.139172
0.140571
0.00167712
0.127113
0.0158609
0.0901303
0.0861397
0.11105
0.139936
0.128815
0.133952
0.133925
0.111491
0.133084
0.066438
0.115456
0.105116
0.14689
0.139208
0.139397
0.135511
0.119087
0.114076
0.106797
0.118596
0.0199579
0.00439352
0.131835
0.121758
0.0817787
0.107241
0.0292918
0.0296861
0.141201
0.0389637
0.0783795
0.105214
0.141647
0.140043
0.200802
0.139796
0.00796579
0.041611
0.0497023
0.278139
0.0997294
0.13603
0.140091
0.281486
0.0886054
0.139921
0.139795
0.140149
0.141472
0.140094
0.133458
0.298551
0.0853788
0.0449672
0.124387
0.116284
0.129274
0.140897
0.103235
0.140167
0.219584
0.139856
0.043493
0.205594
0.282396
0.137883
0.110302
0.187437
0.141932
0.167778
0.0949692
0.121453
0.139532
0.123319
0.142769
0.00939373
0.140459
0.103323
0.0620021
0.10795
0.14118
0.13994
0.13218
0.104511
0.128875
0.140738
0.138104
0.10207
0.137121
0.222291
0.100726
0.119964
0.114016
0.12654
0.193211
0.281905
0.122696
0.141255
0.122534
0.235771
0.135688
0.0511144
0.0463422
0.0999258
0.10076
0.126137
0.12736
0.0952341
0.0800062
0.0241795
0.0727261
0.129307
0.111727
0.0868794
0.140497
0.142575
0.0630648
0.118396
0.0957452
0.108014
0.131564
0.0641338
0.118445
0.0627559
0.140855
0.140164
0.129818
0.0114638
0.143209
0.123319
0.140614
0.125292
0.114719
0.139999
0.194213
0.260934
0.193423
0.139962
0.12284
0.130624
0.137152
0.140089
0.138025
0.122991
0.139975
0.0579794
0.128105
0.117154
0.129308
0.125572
0.140002
0.00196258
0.119055
0.140318
0.140306
0.0477083
0.139724
0.0989257
0.140948
0.0688488
0.224988
0.0474864
0.0958188
0.138271
0.23116
0.0456753
0.136106
0.137269
0.180541
0.140197
0.0982599
0.0821248
0.0458007
0.101383
0.141742
0.140115
0.135333
0.125494
0.249164
0.140239
0.214117
0.115429
0.140121
0.0300038
0.140608
0.102533
0.140565
0.112691
0.030267
0.127384
0.136831
0.115062
0.095658
0.138318
0.0316381
0.263342
0.0336382
0.144724
0.137236
0.0849049
0.139814