/*--------------------------------*- C++ -*----------------------------------*\
  =========                 |
  \\      /  F ield         | OpenFOAM: The Open Source CFD Toolbox
   \\    /   O peration     | Website:  https://openfoam.org
    \\  /    A nd           | Version:  7
     \\/     M anipulation  |
\*---------------------------------------------------------------------------*/
FoamFile
{
    version     2.0;
    format      ascii;
    class       volScalarField;
    location    "400";
    object      p;
}
// * * * * * * * * * * * * * * * * * * * * * * * * * * * * * * * * * * * * * //

dimensions      [0 2 -2 0 0 0 0];

internalField   nonuniform List<scalar> 
11372
(
-21.3871
-31.6771
31.1364
-33.5558
-0.35837
-31.9806
-9.66501
-24.5446
-8.53508
28.2823
-7.18148
37.9323
-19.948
-0.585949
-1.06146
-33.3178
-14.4612
-11.5421
11.5158
14.1989
-33.5854
-1.7724
-5.11616
-34.7223
-8.76535
0.596092
-33.9999
4.32772
12.5826
13.0145
12.8543
11.5869
-2.02434
-0.456398
56.181
-0.855709
-3.62646
-1.81389
-12.2397
-11.1851
-26.1122
12.3019
-2.15629
43.615
6.8027
-18.7726
-5.28062
-26.2448
-33.0623
-2.60707
-36.0345
-8.02298
31.4809
-20.5931
10.8347
-6.93644
43.217
-32.4311
-2.54822
36.7792
-22.2414
-19.2631
-0.492056
-33.3418
-7.92807
-1.11101
-17.2893
-33.3667
25.0499
-32.7597
-0.909096
-5.61455
-3.49493
-7.15845
-21.0559
11.7968
-33.6082
1.85781
11.4519
-39.5773
-30.8629
41.3348
62.7349
15.127
-75.6197
-41.4657
0.757274
-6.20582
21.2223
-38.0137
-3.11174
8.38891
-33.0098
11.4649
4.17075
-3.31146
-16.1243
-15.1541
-34.3559
0.824183
9.14023
26.5676
11.205
-2.61881
13.803
59.4928
-33.5273
12.0854
3.12661
19.7829
4.81141
22.7436
-2.81143
11.9245
-27.0958
8.21115
-27.0825
4.81073
-0.894177
-26.2296
-28.6521
-24.4463
-1.57716
6.18791
34.3833
13.4613
-9.19301
-19.7195
-2.85361
-31.1003
-15.02
-10.304
-34.4019
-20.5195
-16.4371
-4.07791
-10.0255
-13.4507
54.4496
11.8382
-2.56154
11.658
-33.2676
11.8903
-0.218146
-21.5908
-33.8702
13.5037
12.7274
-31.4731
2.22263
-24.3805
-11.0125
-32.2048
8.21874
-0.844646
-7.71859
-5.60982
-20.9993
14.3592
-4.69367
-2.82769
-27.2373
11.6645
-33.8563
-10.144
-20.9003
-33.6454
-3.02596
-2.22502
-34.3617
-1.95112
-31.5577
-22.5333
-9.07541
-43.9186
10.4123
-31.6988
-49.1648
10.6857
13.3918
14.9689
-42.5102
-25.4311
-33.3697
-29.9919
29.4915
-31.5872
26.7553
-33.2692
-0.57141
12.2022
27.6812
-11.3856
-17.5609
-11.392
-33.2857
13.0714
-32.5019
-12.2464
12.9203
19.242
16.3846
-6.08602
4.31335
-6.29657
2.21256
-8.19326
-8.30696
27.3939
-37.4082
-6.40691
-0.699695
14.0369
12.5747
-23.4131
12.6201
14.6196
-5.93568
-33.3497
-27.7677
14.0591
60.4696
-31.2872
12.2284
-4.2069
-34.0193
-1.60455
11.9247
6.76892
10.417
10.3219
-19.0252
-0.42424
-31.5209
-32.3888
-26.5749
-0.424199
-23.7337
-8.59799
11.5358
-42.6661
11.3567
4.97933
15.9127
3.52773
13.5013
-17.2809
8.94432
-45.0862
3.3346
-0.742424
-84.3727
-1.43995
-34.1381
16.6906
-32.3324
6.73595
18.6255
8.41613
-24.2208
12.0226
-11.1191
13.3844
36.0373
-12.8672
-4.59998
-31.6328
56.4868
-11.899
65.2675
-12.6797
5.87941
-15.0695
-11.8082
-33.427
9.24514
0.945171
7.91627
0.186635
-2.50453
10.0505
15.2235
8.20797
-30.0379
-0.275454
-33.0277
-34.2227
-1.58082
-11.6798
-33.9827
12.0703
-33.9302
2.32227
-33.7723
7.31215
-33.6275
3.12711
-2.41694
-32.1189
11.2243
-25.2873
57.3549
-1.13861
-2.45483
-11.1006
44.2404
-2.24498
10.8683
-6.74593
13.86
11.3103
-23.7647
-53.5786
5.0041
7.94205
-33.7845
-13.9782
-14.6186
-30.461
3.85672
-32.9393
-2.40972
14.2838
13.0958
-30.697
-22.9693
22.6657
-6.28538
-9.37235
-6.79843
12.9948
25.5823
-25.0525
-13.5356
-19.9991
-1.6495
-33.8818
4.99072
-8.06775
-33.93
-18.3195
6.42419
-4.93389
-0.568085
-1.22448
-3.13261
-7.23685
35.3258
11.535
34.9741
-16.3482
24.3943
28.3741
13.6938
-27.0516
42.9484
22.6916
-2.92227
12.3731
-2.50579
-10.7509
15.0316
0.235132
4.83214
-33.6485
-17.1968
46.9854
26.5748
14.5258
13.7377
-7.53322
-32.3795
-33.8653
2.91778
28.7133
42.2234
12.4692
-29.1407
-31.4003
0.644379
13.4519
-3.78827
-11.6284
9.93944
18.1015
-34.0794
3.62572
-20.043
-5.45333
53.1029
-33.2712
7.3987
-7.95611
3.59194
-7.87924
-0.970023
-76.1175
-4.90157
-22.7235
19.8466
-3.19232
-1.24704
-33.6537
-4.87561
-2.94197
57.6043
-30.139
-8.20581
-4.95668
10.5851
0.220365
-3.5217
-34.0999
-32.9825
-33.9299
-30.4991
13.9551
-0.354661
-4.63417
-6.97955
-2.17691
6.5479
-24.9877
11.5814
10.6311
-33.515
-2.82798
20.9635
11.2063
-1.57784
0.546792
0.191334
-34.0826
-21.92
5.38993
-12.3848
13.947
-33.953
-9.15042
-18.4054
-2.47671
10.9938
-7.60189
2.73306
-33.5092
-33.9202
12.6169
-33.3825
46.5835
-0.482982
-29.362
-7.80556
22.7387
-18.2189
-28.2302
-15.5711
-27.6966
12.6854
-0.667882
1.30854
37.8124
-28.5388
-5.087
-32.8411
27.1662
-7.56966
-24.8781
-8.48782
20.1525
-5.0553
28.1278
13.5724
-22.0902
50.7389
21.9819
-17.7226
-1.18136
-2.28065
-19.9393
14.0583
59.4362
-33.9885
6.48973
0.47108
-33.9751
-2.17613
-18.5034
-1.58511
3.78163
-31.9713
-0.270196
6.14966
-1.89152
-12.2267
21.2615
27.2179
-1.35811
13.3579
11.9818
9.86398
-29.7955
-33.0593
-33.573
18.4741
-5.18899
65.0385
6.83414
-32.2587
-1.24457
-27.6067
-16.911
-13.7098
11.5484
10.7772
10.2248
23.0898
14.8264
25.6118
-8.65502
-17.3924
3.77319
-4.42239
-4.08189
19.8604
6.53316
-33.8952
0.171031
-32.2597
-10.1826
2.25746
-2.7803
2.66468
-13.0608
-2.68243
-3.67216
5.21236
-0.932499
-18.4971
12.7176
-1.42475
-33.4906
10.8384
18.3644
13.5088
-8.69555
16.8711
-1.73653
-37.9042
-33.8003
2.63115
0.863096
-21.1495
12.4673
3.89482
6.24309
45.3222
11.2379
-4.27897
-26.1074
11.5983
3.62623
-1.69337
-20.95
0.926886
-7.52363
35.2447
-31.3914
-16.2805
-6.36443
-0.187056
-2.96953
4.17982
-48.4711
11.1043
20.1679
-23.5495
-34.0941
-2.69309
6.88723
-31.1216
-8.92743
-29.6646
-34.2316
-11.3975
1.88137
2.63942
-2.93645
-36.5206
-1.08129
-3.37377
-7.57799
-2.11239
-37.4262
-20.1527
-7.28568
-12.1369
-5.21876
-28.458
-33.0222
-15.395
-13.8591
4.97272
-37.6205
11.7167
-7.55557
-1.38362
-5.32534
1.80425
-22.6328
-32.9668
-1.91691
13.1562
8.74926
-15.2032
-13.2923
-24.1396
2.05531
-16.5007
-33.0206
-28.5239
-23.1943
26.2
26.3489
12.7425
-6.71244
-22.3075
-17.9021
-28.6236
3.33353
-30.7944
12.2999
-13.3632
0.568966
-20.2116
-17.1306
-32.665
11.1847
2.01575
-6.96842
11.1211
4.43068
-0.175746
1.61272
14.0013
1.63853
-7.62808
-30.9829
-30.2462
-2.23883
-1.82334
48.9657
-6.23853
31.5183
1.68851
-10.8443
10.0847
-35.8092
14.9616
48.8673
-2.38694
-0.10874
18.1318
-53.9973
-4.70293
-33.7778
52.2098
45.7023
-6.02261
-23.5705
-25.7646
22.9069
13.2742
12.5835
0.569587
-18.3301
-2.20088
6.96324
15.403
-21.9368
11.765
-2.41712
-34.18
-31.9514
-25.5182
-0.51592
-0.260999
-5.42235
10.5375
-14.7628
10.2914
11.0566
6.22156
-11.253
14.115
-10.5305
17.1311
11.9492
-15.5401
-2.09491
-33.9354
-14.8091
-29.6554
-4.4777
-8.15308
7.74563
5.6508
7.48843
2.32227
13.0179
-31.4513
-32.4138
8.62618
-29.293
15.2092
16.6638
-1.6371
-2.26528
12.9735
-5.58121
-25.5329
-7.23793
32.8492
-11.178
-27.8054
5.26218
1.20798
-0.895476
-5.00315
26.9546
-35.0492
4.693
-10.4883
-6.37831
-2.70942
-23.968
28.3535
-11.9066
-3.77236
-1.44772
3.48504
-53.4683
-11.114
-15.9448
-19.7451
29.0758
25.7861
-32.6548
-30.1129
-33.1607
-32.0032
-38.008
-14.8951
31.7698
-23.19
12.5343
-6.4252
7.74501
-32.6993
-0.461314
-34.1993
-32.4193
-27.7886
13.2619
-5.28168
-2.35265
13.8462
-2.03898
-28.0592
0.236101
-34.0998
8.86185
-22.1536
-2.79241
9.33714
11.7394
36.6452
-16.2394
11.3117
10.9333
-30.7788
-77.8202
20.4369
-33.2428
1.88696
-32.4386
11.6224
-60.3373
44.631
58.7334
25.5818
-4.53516
6.26763
2.55688
-35.951
-34.1845
-12.23
58.1339
-3.56821
-6.77246
16.9349
-0.651361
-2.60173
-33.8987
-37.9491
-3.65695
14.1614
8.74339
-27.7077
-34.2164
4.22076
-33.3249
-0.802055
3.37128
6.43593
-3.92382
-15.1438
39.3677
-2.30989
-27.437
-17.6322
-34.9824
4.29071
-31.0346
1.05798
36.6101
-31.7728
54.6256
-18.5522
-1.41633
-32.9932
17.5984
14.4009
27.8124
2.5255
-33.6552
-80.7966
-22.9054
-3.2558
12.3624
-33.8373
-30.7855
-16.3946
-31.8788
0.46731
21.283
-23.1394
30.3293
-16.2755
7.22566
-69.4336
-18.1151
-15.8224
11.5995
16.5098
-33.9473
-1.31431
41.8061
13.6078
2.49428
-31.098
-1.59412
-1.90425
-20.2303
-37.6413
-6.31299
9.45297
41.301
-1.15456
9.97032
6.14738
-3.53277
-17.3884
12.6859
8.96441
-24.3613
27.3033
20.6321
-32.0378
-14.4337
-6.67433
-17.8282
-18.808
-1.93292
4.33842
-4.66006
38.4557
4.82037
-3.49789
-1.35995
-0.154185
-13.9942
-1.38109
-0.608481
-8.98733
-18.4979
6.13904
10.3736
5.71411
27.425
11.1873
-2.67341
3.19275
11.5709
-30.2714
-26.2617
-1.3154
-2.90087
1.50151
-34.242
-0.78227
2.86797
19.1327
25.0522
-16.8265
6.99885
3.93807
-0.590037
-14.613
-18.9569
17.8183
-6.08776
2.86209
-30.5977
7.38187
-33.4944
-8.23129
-33.7066
23.1672
-0.559894
5.72386
6.22587
-8.82097
23.7724
11.5573
27.2947
-33.6465
0.0212884
11.5902
-26.0743
15.1721
8.07387
-5.24576
10.8063
20.9049
-2.30243
-33.3718
8.81745
-3.77013
10.1511
-7.09955
6.78284
4.13432
-24.4336
0.998558
-1.75031
-22.7374
0.703172
-33.2898
5.93223
5.58976
-55.2401
-6.31281
-0.887418
9.61269
18.8988
10.6626
-3.49851
-9.20616
43.3583
-15.3494
-3.54963
-6.74439
-2.2399
-22.2275
2.40654
-0.0870237
3.24136
1.10535
20.4905
-33.0719
-0.277357
25.8183
48.5726
-14.5438
16.2036
-18.327
11.36
13.2551
23.383
-15.2085
13.2851
13.4817
-5.7714
15.8694
-31.1283
4.5095
37.1416
5.73312
-32.476
-15.8447
-18.8591
12.8003
-3.75487
-1.66922
-16.909
-0.817136
5.37992
-33.4017
-1.06855
-4.12469
-33.88
1.34364
-6.21075
-0.152275
-27.3074
5.1729
18.3918
-8.7713
-0.55243
11.1588
-27.5259
7.46439
-3.67697
10.6416
2.24787
61.2342
-23.925
-4.74376
18.5608
13.3128
-25.0094
1.1925
10.6531
-25.8963
-4.52655
24.5902
-0.550989
2.07766
17.168
-2.0344
-13.0462
4.88876
3.13258
-2.8563
-27.7162
-12.0165
-17.2241
-28.6911
2.8508
-14.9003
-33.6522
9.79367
-8.62541
12.9938
14.2412
-0.294753
-27.6925
9.69489
14.5818
-33.3865
-5.63938
-25.1686
-12.8893
11.5825
-32.9728
-35.3595
11.2369
13.3197
-20.9311
-11.2191
-33.9155
-34.5437
-6.07986
-12.1528
-15.7302
34.714
-2.49505
-13.4452
-0.991949
-2.31054
-22.6058
20.6972
-7.81101
-11.995
-6.26072
-0.833703
3.14764
8.58589
-6.60187
-34.3322
-36.7292
-1.23433
-31.8008
8.98796
54.6848
1.29691
-28.4495
-31.9014
-6.94726
8.4855
11.5486
48.079
10.3183
16.0378
-26.4787
-20.6788
-11.5366
57.1065
12.6253
14.0939
-34.4994
-29.8701
-34.0778
-32.2098
-4.57348
-19.9963
17.7183
-4.87328
-1.99636
26.6941
2.44102
1.2015
-30.027
15.1788
-11.769
-0.711781
14.749
10.2916
-29.6405
-2.86562
-2.11955
9.98776
-1.55717
-11.4978
-4.94274
-6.62753
-32.26
-32.7709
1.29005
-52.6084
12.6448
56.6686
9.34434
-30.0545
-12.8702
19.0767
-2.11551
8.69209
-51.3319
-1.8177
-31.0174
63.8145
55.922
0.0907725
-34.0409
-34.3398
7.58798
0.65733
-0.583249
55.9335
-10.4134
9.82452
-0.294673
11.2111
11.1705
63.992
-33.8957
-5.89689
9.06293
-4.30126
0.239791
-1.07158
-31.9393
-11.3051
-8.69538
28.1151
6.67621
-9.44501
-6.46981
19.7681
-1.73762
21.4862
-4.09028
10.026
-0.535287
-13.7762
25.6621
20.4937
-5.72598
-17.9231
-18.8427
-30.8609
-1.03225
19.9237
-1.20598
-2.51371
-32.8583
-32.8665
6.09261
-33.3995
-7.27005
-10.6351
-19.9188
-2.55568
-16.7612
-28.2545
-10.6422
44.4431
4.11372
11.7718
44.1276
-5.85148
31.9699
-33.2689
-4.29341
11.9973
-1.75669
-31.5067
-9.26862
44.3312
15.7206
-33.332
13.4291
-22.4052
14.9797
-33.7507
-4.0377
-32.653
35.7855
-0.846965
1.07289
-17.0894
0.0852968
-10.0319
-24.281
-2.60241
0.668788
19.8795
-20.9758
-33.5001
-31.2499
-44.842
5.58889
-24.2844
30.5519
11.8805
5.7667
-32.6762
14.1208
-1.71597
-1.33608
-16.0287
-0.805521
-34.0575
3.78836
4.60787
-7.06277
-27.6108
-18.476
6.8255
-6.1203
-10.2399
-11.9463
-32.3238
-31.7839
3.99865
-21.0369
-22.0202
-24.3389
43.7711
-22.6241
13.0321
-18.5004
12.1343
-31.9708
4.979
-3.7246
6.5344
-4.73235
6.88111
-17.1339
-33.0686
22.7754
-28.9364
-33.732
28.0201
2.18401
-23.3453
12.4236
-5.89035
0.282429
9.81952
-34.1309
-23.036
11.5006
-34.0671
-20.266
16.1381
-33.127
9.30536
-2.7616
-8.33778
-2.80911
-11.8722
16.2526
-23.1461
10.4817
-23.1728
-28.8912
12.9275
3.15512
9.28471
-14.6712
24.3041
-0.731413
-6.56867
2.48042
3.57525
-2.01233
-11.8988
11.5242
17.1424
-1.58034
-76.7833
-2.20734
-0.388767
-66.1828
3.17155
-9.11262
1.24114
-31.713
-34.0433
-34.8889
-11.2314
-2.76358
-17.05
37.129
-1.77742
-31.6309
-23.9989
-0.179961
-17.784
-13.0263
42.4948
12.9257
-2.46777
-33.8887
2.98755
-17.4243
-0.253792
1.33421
-30.2865
17.1664
50.4716
-6.0005
-34.8092
-6.46297
-3.37475
-25.545
11.946
-30.994
20.5452
52.8297
-13.6009
11.6027
0.987559
31.0377
-6.03319
6.41352
30.1361
-4.76628
-1.97734
-18.4349
-32.5146
-22.1239
12.4255
45.3654
14.0636
19.2061
-33.9154
15.6954
9.49875
-12.0397
22.8331
1.92316
-12.1995
4.98093
25.2037
14.5612
-27.1098
-11.2134
-5.02967
1.95209
-9.36996
-33.2078
-16.731
8.73083
65.6195
-22.7051
-19.2632
-12.3636
14.7124
-33.8405
18.8665
-2.3163
40.6427
37.1091
-3.11473
49.8803
-33.951
29.5714
-2.51742
-25.7594
-7.5298
4.51265
-33.9787
44.1915
-6.20971
-1.30944
-7.91925
5.41544
0.143978
-2.14541
-31.4901
8.28089
-8.69377
-8.78686
50.1361
-26.9801
-38.6002
4.35853
-50.4869
13.3054
-10.7273
-1.79348
-18.5722
-4.82602
1.61495
7.83749
13.3533
12.0126
7.59853
-23.2939
-9.07645
-16.3125
32.0542
16.1541
-6.12245
11.6062
-4.09451
-31.9131
-17.7942
24.1494
-5.17503
-4.68037
14.7801
-5.62897
-1.71429
5.58471
-0.335719
-1.84235
-42.2126
-7.30974
15.3309
-33.4697
-13.0055
-29.7783
-30.7321
0.475114
11.5097
-24.8741
12.1785
-7.83309
12.9961
-12.8681
-3.05687
20.6161
-27.4408
-28.3417
15.6007
-17.8739
12.7824
-33.0894
61.2581
-20.3179
-65.2607
33.9598
-23.1089
-33.8056
5.22117
-34.2187
11.1094
0.298733
-35.0432
-6.208
-3.48493
45.5492
-27.6118
37.87
-17.7576
13.7164
-4.52283
-1.53813
-29.1596
-35.4056
-8.89238
60.7517
5.73974
-8.51128
-34.1257
-12.4908
-4.67597
-34.1187
-15.6517
27.1925
11.1176
-52.1371
47.5752
-9.73775
4.17457
5.47805
14.6399
10.7431
15.4721
-3.98838
-10.7559
17.3155
-1.66412
-3.89814
19.7141
-1.44716
3.87396
-4.52896
-5.71942
-10.0948
-22.039
-1.56244
-17.2749
2.17523
-16.2818
-27.2756
-33.7782
-33.3406
-8.71303
-22.1846
-12.0372
3.1551
-2.40198
-33.8982
-24.1424
-0.776906
-5.23482
37.0743
-33.6674
-5.17264
-3.14674
6.57531
-33.6573
-4.46384
11.7948
-33.981
-1.5111
-28.918
-5.89941
-12.1847
-3.0551
-26.5141
14.3941
4.18587
-3.8643
-1.51671
11.8955
-33.3375
-9.70698
9.98885
-33.3006
64.4822
-5.58172
-1.08501
7.04195
-0.152888
5.93932
-1.00332
-0.283408
-10.1755
15.6075
-21.1573
-0.731623
-1.61245
-31.3587
14.8082
-18.4387
-11.9741
14.082
6.06546
13.536
-31.1996
-22.7004
-67.297
1.50566
-0.871631
-1.97142
-1.60234
5.49475
-1.44236
3.28781
-18.3944
5.37628
-5.01546
-23.5492
-22.6451
-4.16306
-5.41796
14.7318
5.09941
-0.496643
9.93812
-14.9739
-3.80257
-9.55401
-21.6531
1.01103
-3.44856
-7.27214
-6.74177
-28.054
-16.8847
19.272
-15.814
0.0481012
-1.39133
5.75783
59.7937
1.50182
26.5211
-13.7387
13.5012
0.588642
37.9167
12.3021
1.35847
51.6173
8.55894
-2.40024
-29.2663
-8.33105
-17.1618
-33.6185
11.3825
-33.6833
12.9493
-3.64932
-34.3156
-32.2989
11.4135
9.70472
10.787
-0.60595
-34.3933
12.8621
-29.3621
-5.28559
49.6034
-9.77122
11.8733
-66.0562
-27.2501
41.2886
6.69704
-15.6447
-21.5084
-7.12836
-1.33906
-17.6783
-1.51203
44.6288
0.643299
-10.7429
-23.6242
-43.4932
-0.926524
-2.0663
12.896
-9.50517
-32.5881
-22.9136
-2.62159
-23.0426
24.6751
-1.99666
-2.94242
-5.49954
-14.3985
-2.42118
11.8433
-2.12308
-2.30147
50.6583
17.965
-10.4477
-4.80633
-0.247771
0.52126
-6.50202
-29.8655
-60.3962
-6.14947
11.0235
10.0193
43.1684
-0.668844
26.2933
15.3125
-0.209913
47.5587
-33.0825
-1.82359
-13.3278
-33.8288
-16.9411
9.38111
18.8506
-4.76587
61.2702
-14.2318
-34.3526
38.7482
-12.4336
-12.6882
0.269218
25.0865
16.3997
-32.1856
-33.5396
-2.41077
2.25342
15.5773
0.113199
-14.7413
-0.597486
-33.2727
1.24906
-10.3463
-7.68101
25.7561
-12.3423
4.47638
2.67034
-34.3025
0.893858
-2.0243
11.4246
0.34242
-4.04204
-13.808
8.32518
-2.17417
-33.6994
-12.442
-1.41248
-4.31222
-2.29494
2.88233
49.7157
-33.851
-14.7106
-2.2352
18.6505
56.4813
17.3768
6.91441
26.274
-7.6008
11.6462
-9.71641
-3.06926
21.4839
-32.1934
-33.0326
-2.45111
-33.5582
-17.2189
21.6526
-33.481
-21.6456
-1.68879
5.30567
1.0563
4.11526
-21.9921
12.1426
-33.0304
-3.2185
-33.2773
-30.0896
18.839
11.2454
-2.03525
-12.4333
15.679
-0.325323
-21.281
-6.78158
14.9489
-34.0752
-2.31501
-1.27304
2.27724
-1.7931
14.9822
-31.8712
10.9398
14.4359
-25.7352
-1.8455
-33.997
-21.4708
19.6004
-35.9023
0.201849
-0.223004
-30.0434
-33.3375
-33.827
1.68197
22.6149
-45.865
-21.0009
-2.19458
-0.500828
-3.48329
-32.6184
-28.5153
-13.8465
-34.1622
-22.1743
-14.601
-34.0476
-13.6666
29.3731
10.5942
-1.56197
-3.77879
-18.4458
6.58914
-24.3869
-14.1654
-23.4434
-0.10051
-24.5596
-11.4326
-0.488041
45.4395
-3.41626
13.3449
-42.9107
-41.8013
12.4787
26.1979
-34.0132
-26.0817
-7.57829
-7.20059
10.0025
-22.142
4.99455
8.66782
-0.769252
3.17055
-2.45465
-0.86082
-33.7936
-30.1935
28.7887
-6.50378
10.3397
-4.20563
-41.2565
-2.10192
-32.96
-7.49381
3.68446
10.5275
3.04419
12.1729
-24.2609
15.7418
-44.8202
-28.2574
2.24021
5.68914
-12.5753
60.1405
-1.68019
10.9767
3.22804
-9.49231
-3.17437
-0.968967
-26.5537
34.3141
-32.378
-24.9791
-0.537018
-9.4938
8.74129
63.7937
10.9052
-3.94529
0.0618595
-4.33413
42.9346
-25.6416
-4.62204
-9.96004
-15.8669
33.4787
-28.807
-0.59342
0.0923719
-32.5151
-31.3559
-3.6747
-5.83755
-33.8443
-3.66418
-31.2983
-1.82
12.5386
63.5372
-4.16711
-31.9663
7.83968
4.62638
11.9712
14.7788
-1.23437
1.63593
16.1162
11.4987
-4.334
-12.1356
12.1259
-18.8972
26.35
-16.9572
-22.8631
-1.9082
-26.8401
-4.03916
14.054
-4.55395
-0.520877
38.1865
-27.7059
13.9742
-33.7737
4.40933
1.4182
-11.1823
12.2791
-2.06207
-7.99592
-15.2059
9.57655
-18.333
-0.717804
-3.0733
-29.2554
-34.1994
-48.4339
-29.2887
-17.1778
20.3062
-8.67025
-4.68689
-0.138044
9.76091
-30.7301
12.0519
-1.44386
-29.8902
-33.569
-17.562
-7.75657
0.227862
13.1382
-12.5663
6.50774
19.9639
-31.6061
-26.915
-31.8313
-19.6821
-4.07173
-1.29364
-3.46518
-34.0514
-33.4802
-2.48558
-18.0155
2.99756
29.0161
-7.34547
10.4431
14.4805
-34.0717
9.01505
30.493
-29.0434
1.7857
55.3458
-24.4507
-32.8918
-20.8546
-0.00613069
-7.19349
5.33692
-26.3127
-15.993
10.4076
8.54689
14.578
-5.6107
12.0404
-29.3994
-7.41217
-35.04
-2.49332
15.7401
-33.9863
12.9526
1.76527
-5.74139
0.159771
57.1305
-34.1373
-33.5199
18.0246
-4.7894
-14.3464
-29.6558
-5.48162
-31.5536
17.428
-61.4757
-2.33097
63.559
-20.3601
45.5267
-2.30657
10.8678
-18.3934
-34.0456
-1.04617
5.60044
12.6087
-4.74736
-33.7853
5.93092
11.4453
-6.28692
-0.709101
57.6082
20.5947
-2.26926
-6.07062
-16.5143
-29.1266
3.92599
-9.97239
16.4316
0.412945
3.46949
-1.18043
-6.96166
-2.34081
35.5614
-0.990014
-33.9634
-4.89277
16.9228
-33.7416
8.89226
11.677
-12.4439
14.2645
-33.9907
-2.65487
-23.2452
-28.2852
-34.2205
-13.1547
-32.2766
-23.6115
8.94449
-30.9949
3.22563
-11.6069
-4.71119
-34.2158
14.3824
12.7085
-33.8971
-10.3402
-10.5738
-33.2717
10.8325
-23.5062
31.579
-3.04778
25.0331
-18.8982
-19.9135
-10.5282
-33.8909
33.2438
16.6077
-34.1055
-0.0300557
-33.5257
1.73755
-1.38273
-81.6969
-34.1221
33.5172
-5.87646
-10.7644
10.2654
-10.781
-1.3163
17.9134
-2.1204
-41.865
-8.12839
-6.91065
-9.56551
-24.3324
4.06335
24.6464
-11.778
21.9524
10.9422
-11.3719
-5.74351
30.2299
0.777162
-1.96847
46.8447
-8.05145
0.56284
-32.5973
-34.1912
18.3146
15.128
-14.7367
-9.20874
4.44964
-0.470252
-28.6057
-28.5492
-12.5341
4.07172
-0.191219
0.68122
-15.7493
-3.30295
64.9145
-1.30596
-1.52023
-23.0517
23.7817
-36.0032
1.3467
25.2492
-34.4275
13.9216
-4.77582
-44.5287
-2.34153
-0.796565
11.1834
-16.2177
-0.0891879
-1.83685
-3.91735
-12.3679
-0.885356
14.0828
-9.1473
-11.4354
-2.68197
7.44641
-3.83017
-7.80265
1.93116
-1.79083
19.0807
20.5558
-9.12171
29.4629
-43.4052
-14.7928
4.57357
7.68058
16.444
7.90303
-16.671
41.2772
-26.1141
4.73841
-3.36123
-6.8597
-17.2571
-2.25859
-11.5597
-32.944
13.6435
-6.18989
-9.43715
-17.8961
57.5933
-26.5214
50.9984
18.6939
2.54738
-3.65272
9.09262
-32.0159
-6.86207
48.8819
-4.71901
17.1726
2.89243
-2.32145
13.0151
6.16458
17.0483
-26.3263
9.34503
-4.85593
-32.8321
-2.73551
7.01547
-31.9728
7.18551
-1.62415
3.66926
6.64307
42.0577
-3.05619
-22.2106
3.73601
-30.1897
-4.53666
-5.37711
-23.523
-0.760537
-2.86399
1.18187
-14.5426
-1.45199
-15.6621
8.628
38.8283
8.16368
32.6937
22.362
-2.83479
9.47062
-5.88385
-1.65208
-26.7881
-31.7899
47.1046
-23.2493
3.4736
30.5462
-3.94976
-2.53939
-33.6165
0.681045
-19.6877
-24.0317
47.9879
11.318
23.3549
-1.61489
6.43499
21.5054
-15.8158
12.5107
-4.55721
-12.5421
-0.199529
-0.162983
-3.48923
-2.22966
20.1092
-28.7873
-6.58051
-34.2293
-32.5767
-8.61395
-33.2994
-1.98001
2.72269
2.33106
0.0105802
-33.8401
-11.8771
20.9835
-1.63948
43.3722
16.7041
-2.26482
7.39716
-2.36826
-19.2489
-3.0959
16.522
-1.68179
-33.5319
-38.7539
49.5184
47.9381
6.47348
-2.93656
-2.31542
28.7448
-98.1035
12.061
-0.0673756
14.4255
2.3353
-14.9921
14.2788
-32.229
18.1583
8.71787
0.847482
-5.70421
-6.83486
9.04859
-12.9052
1.30054
22.9515
-33.6866
-24.1888
13.2168
-3.71459
11.8528
-9.0477
-5.14617
63.9619
-27.8934
-24.0552
8.6861
-2.00117
-25.38
35.9485
-33.3292
18.2393
-31.9294
-32.0657
-23.3338
-3.8977
-4.91374
7.17654
-33.8792
15.0819
15.1327
-22.8755
-9.28822
30.974
-6.5311
-1.09216
-35.1493
-20.8723
-1.10233
-67.001
-16.0547
-5.97268
-0.430529
7.84096
-3.60535
4.87304
13.6629
-15.0119
-29.5187
-18.9532
-1.75414
-14.5868
7.02221
40.1464
-19.4608
15.9773
-33.5242
-0.717029
15.5782
-26.9414
-4.04918
52.1231
-34.1702
-31.3701
-33.5481
-3.22651
17.3634
-38.2588
-1.53396
-85.9344
-0.563848
10.3674
-1.05767
-11.6577
-5.16004
11.807
-16.4097
12.5678
16.7069
-4.29334
-33.5739
0.326717
-2.30362
-0.414759
-5.51764
9.67462
-6.08267
-0.623715
-5.22484
1.05875
-3.96281
32.237
-49.9804
-12.7169
-4.33124
-1.54849
24.6095
-19.3116
-1.35295
41.1963
-17.78
62.964
-2.97156
57.6105
-59.4325
-16.6735
31.7029
26.1697
-26.8298
37.5591
-23.914
-22.579
55.5066
-11.6008
12.9238
-22.2684
-14.3341
-8.96213
-34.1396
11.7287
-5.45609
6.83804
-14.9282
-28.4903
4.82405
-6.43404
-5.64338
5.17941
-0.455609
0.611303
36.2204
27.7146
19.5481
14.2008
-12.8087
0.872779
-1.6602
-33.2574
-6.49385
9.45941
10.9851
-11.5775
12.6459
-33.7027
62.4669
-5.05999
-17.9592
-1.53508
18.6505
-4.91364
-11.4133
0.482057
36.8152
-1.24371
-28.7304
-4.02804
2.01897
-34.1063
-15.5804
16.2087
-4.05441
5.1715
-35.3764
-17.6144
2.21771
9.78216
10.1036
-2.79049
-25.4014
-35.8408
-5.40363
18.3561
-4.00945
5.88623
-0.950954
-27.6088
-29.8012
40.6484
-31.2399
-4.84723
31.994
-21.1621
0.771995
-2.19266
-58.9869
-33.0201
-2.2688
7.37661
33.4047
10.4815
-10.1522
-2.1618
-33.4681
-33.676
-5.09757
32.9678
-1.30778
8.83835
-1.89144
-1.21962
-10.5104
-29.9209
-13.7403
11.8175
-7.95442
-30.4197
18.0328
19.2581
-10.1107
16.6344
-0.75399
-11.5007
32.4882
-0.982584
0.0373855
1.90834
-16.1529
-3.84579
0.703653
-1.20951
-25.1901
-33.7599
-3.85833
9.25275
-0.440125
-0.796119
13.6843
-18.7802
20.2576
-59.7596
-9.85815
36.4379
17.5958
2.327
-0.727094
44.9703
-29.7417
-33.6826
13.3198
-32.0377
6.44766
-11.5038
-0.287974
-5.41919
10.8896
-9.84714
51.0196
-9.26539
-7.95453
6.6095
-4.08649
10.5851
12.2139
-31.8864
-17.0121
6.40777
53.1336
3.96861
21.5815
0.105761
-15.2951
20.7787
13.0833
-14.3435
6.54526
17.9964
-1.67784
-17.8572
-7.97312
1.25522
3.55049
-5.79563
-37.5096
-32.2574
3.96771
-10.0895
57.0892
13.4911
-34.2924
-7.25206
-31.5581
-49.2933
-3.414
21.6424
0.616258
-24.8675
8.42049
11.2246
-0.865167
-8.86793
-33.5947
6.37917
-1.83057
14.4047
3.88783
-24.5078
-29.5866
5.95797
14.6934
-11.5878
4.98833
-8.73288
-8.20054
41.3967
12.1212
-31.9644
19.1726
-2.04547
-19.851
9.63723
-30.9593
-28.8954
-17.661
11.7586
-0.64012
20.9127
-30.2433
11.2798
-33.0526
-47.1964
-9.08664
50.6934
-11.4858
2.99415
20.2751
10.1298
-31.2612
19.6362
-1.81423
7.97567
-29.0982
1.90994
-26.2346
-3.0581
43.776
16.468
10.8761
-8.40187
-53.2321
-21.2522
-21.2469
1.11079
-1.83301
51.1981
-31.304
10.3267
-10.0634
18.5278
-7.72374
-15.4673
16.5181
13.1254
-7.28018
-3.56892
-2.87068
60.3413
-20.4707
9.69461
-1.5598
10.9519
-6.67857
45.4086
-4.74804
-31.1472
-16.9878
53.1006
14.3143
-5.09253
-15.4157
-19.7387
-5.06663
-9.2174
-29.3236
-6.20022
9.47116
9.88846
-2.45797
-0.253931
46.7334
16.8885
44.1495
22.4121
22.5789
-32.2217
-20.7546
-1.50976
-2.15235
-35.4739
14.2042
-30.8862
5.32997
-28.524
-10.4653
-8.69496
-1.62159
-43.5184
2.76643
-15.8528
-30.5554
-31.3645
0.78662
-1.61719
-33.4952
-6.0002
0.251324
12.3991
-7.53544
-1.11404
-14.3751
-14.3081
-15.5844
-12.0753
34.5422
-18.1286
-4.04082
-10.2866
16.2488
-37.5415
-3.44346
-2.96582
-1.93597
-7.12326
7.21994
3.58464
40.0358
-28.0218
15.0606
-36.8571
5.8524
-2.87949
-4.92432
-7.19783
-25.3808
-3.79732
-23.8804
-33.1309
-32.138
-34.1713
-0.696215
-15.0869
-6.5838
-33.9376
-8.94963
-33.4866
-4.0549
13.8781
14.9037
9.53479
21.8609
-33.6965
-31.1473
-24.8687
0.241695
50.4975
-33.5509
-25.0418
-2.753
-33.9777
29.4271
19.8007
8.44282
16.0031
-28.3797
-4.83736
12.1555
-8.71296
13.3063
-33.4923
-10.9837
-11.8334
-16.0813
-7.03128
-3.35738
-34.266
12.134
-18.4896
-17.956
-10.9184
34.8529
-9.09412
-7.38593
-21.7732
-20.9911
27.3109
-33.404
-13.7976
-32.8725
1.3883
-32.2775
-0.419684
-4.02068
36.1119
-10.1076
-33.8578
9.81321
-3.77998
24.5711
9.30287
-3.60944
7.28127
-32.5477
-2.08794
0.618702
-8.25386
-12.0756
17.4655
-1.09551
16.7808
-2.70564
-6.45964
8.49199
-24.1143
9.89739
8.4666
-32.8574
-37.4483
10.3058
25.4126
8.60593
-14.9822
-1.89848
-49.7553
7.27534
-0.702785
5.99125
-1.90633
15.6787
22.3626
23.3075
-3.83006
-7.06724
9.66882
-24.3489
-20.5396
-33.2161
-33.919
-30.3241
-32.6975
5.30499
9.21811
6.30487
-15.2054
-5.02615
-3.30104
-3.19635
11.4574
-3.48765
-38.39
-2.54186
-19.5685
-4.89685
0.446062
10.8517
12.8237
11.597
3.23451
-33.6159
-28.5047
2.05438
-77.7636
24.056
-7.7348
-11.1711
11.1242
-2.22544
11.6227
23.165
-19.8514
-29.4213
11.6211
9.47656
-33.5088
-29.641
11.6606
-2.08791
-22.3473
-6.6768
13.7117
-19.5443
22.1047
-1.94114
-2.24891
-8.53196
-24.9153
30.7091
35.9321
-78.162
-25.7531
-23.1771
46.9054
12.9134
-0.300246
31.9296
-73.4388
33.5556
-33.1656
32.6861
-6.32533
-0.563064
6.07985
-34.0111
-1.40738
19.2661
-54.8649
7.04343
-8.51907
-3.60782
-0.875374
-26.1927
-33.968
-1.92693
-5.45639
-0.233407
-45.8601
-33.5109
-4.52354
-1.82887
-3.53043
-28.3947
-5.26082
23.4023
0.255585
-20.5686
-24.2283
25.7031
-33.517
13.0381
7.03881
7.70468
7.52212
-22.3242
17.1515
-0.909284
-29.1358
21.5225
-9.62847
3.50118
-2.28261
12.4572
-10.7649
-54.7279
-5.08607
-2.21934
-33.6599
-9.30112
-79.9105
-12.9899
-23.5752
35.8976
8.37553
-3.30501
-5.76588
18.2795
-33.1006
-3.44508
-16.1484
-12.5675
-13.7348
0.180715
11.9887
11.353
-18.2727
2.72888
-0.80665
-4.07611
37.8695
-32.8642
-33.8716
-7.66977
-7.32504
-27.6296
-5.59985
-64.8088
-5.28024
0.880744
-31.2241
-29.091
-7.92488
-3.81242
11.0955
-32.4963
11.6858
-12.2213
-27.4278
-37.119
-4.16206
-0.784964
16.5078
8.59622
-0.0586907
49.6988
-4.48026
8.53518
-4.4785
-0.890736
10.5063
21.2796
-9.05649
-20.7035
-32.9096
-32.6858
-0.403599
22.7939
0.801109
-1.84215
8.63366
-15.673
11.5534
-27.316
-10.2271
-8.97325
13.6073
0.123436
-24.347
-1.36904
-33.5426
-19.055
-10.6773
-2.28878
-1.19299
-5.30494
-77.7223
-3.35742
-18.0655
-39.5126
-4.50416
1.91026
11.4731
-6.68379
-0.0816732
24.5554
1.03258
13.1393
-4.85965
-0.321019
-33.0861
-7.2123
-6.91072
-12.0164
-9.30707
-25.6089
-24.593
-11.4708
1.75442
20.145
-24.4225
-1.13056
-31.3862
-34.5812
-3.61384
-15.0004
-8.91778
-8.99952
27.9514
39.9648
-33.7531
-33.402
-8.04472
-8.88251
-11.8966
7.40832
-2.64006
-19.7551
-13.1591
-8.74889
-15.1732
18.3936
-25.7045
-13.203
-33.9641
2.70431
10.4353
20.7766
-84.2382
-0.292457
-11.1911
0.243108
0.409934
-14.3501
11.2831
-3.21385
-21.1664
-33.9506
11.4295
-8.92082
-3.52299
-6.1765
10.2524
-4.71942
31.5074
11.3891
-31.6525
7.67983
39.0206
5.54902
-6.17129
-4.56918
-34.2234
31.1663
8.49113
9.49336
-26.5246
11.8388
37.3979
3.848
14.2048
-0.699394
-28.8447
24.1028
13.0664
-10.5878
-29.4613
-33.3117
2.37467
-0.120319
10.1721
-34.1295
-8.26902
-49.1033
-0.459976
-0.771781
5.32091
12.5363
-6.78258
-31.4909
10.3769
-33.3978
-7.73289
10.4827
-29.4484
-2.88769
-33.1563
4.133
4.43976
-28.849
25.4463
15.2364
-6.49879
46.5534
-4.21335
-31.9045
-18.4459
-33.0642
-0.254324
14.6841
-5.95861
-4.2291
15.0116
-1.66193
11.6099
6.99989
-13.2794
-32.0239
-29.0535
-4.51628
41.6771
-11.4513
-24.1632
-3.00173
2.92076
13.6991
10.51
-22.4288
-12.464
-5.2239
46.5974
-34.8843
17.3081
-9.20648
-2.43786
7.5242
-9.46128
-2.05993
25.2807
-0.768573
-1.63399
11.7856
8.5956
-15.4437
6.11319
10.3371
-33.1487
-0.390089
-4.48135
-22.2908
-33.7578
5.21956
-30.744
-31.4101
-2.14663
-24.8427
21.0534
-16.5807
-10.7389
-12.8048
6.21794
12.1809
6.76688
-0.186773
10.7047
-7.36209
-6.15285
7.58925
-1.53993
-10.2658
14.943
-34.1692
-54.2067
22.2012
1.20137
4.57774
18.3676
-12.9955
-20.6009
-8.01347
-20.7389
10.1595
-3.93383
18.08
63.4681
-27.4566
-14.7075
0.399919
12.7342
5.82881
-4.0168
-1.90781
-20.9724
-6.97468
-32.5569
-29.3813
-8.23044
27.931
26.9604
4.40326
4.33708
-32.7196
11.2477
57.2804
-33.4609
-27.6474
-4.7194
-32.9009
-1.41525
12.467
0.92476
33.172
-23.361
10.4652
-19.4725
12.3019
-31.226
-3.32893
40.1387
-38.6754
5.92575
-35.4782
-27.4047
-10.2371
-2.41775
3.82756
7.0763
-33.4492
-10.8811
14.469
-1.4135
-30.4466
-14.3774
4.86726
-34.0892
10.4381
31.6009
-27.135
-10.7456
3.38564
11.5968
60.0078
-8.08117
21.6584
10.665
36.8014
14.9476
-33.4324
-22.7771
-0.977576
-2.62787
0.527712
-0.89593
11.7604
-1.99934
-33.9776
-2.78301
-6.44061
-22.4364
2.36621
-7.66717
-32.0046
-2.08174
3.96312
-16.495
-13.5937
6.69439
-0.284914
12.3144
-26.006
-0.175294
10.1484
-21.8066
-4.15866
-2.73117
-2.19972
-3.29155
-7.26362
-6.42932
-34.2325
-2.54285
-12.165
-33.5469
-50.065
-13.1493
5.86561
-5.29259
-6.18092
-31.7515
14.9351
0.867269
8.0492
46.1623
-1.69382
21.4638
-8.88296
-1.93613
9.23009
-24.5607
-14.9715
26.1554
-19.1105
-14.3507
15.4345
-24.7491
-28.6737
13.3691
-31.069
-13.4171
12.1317
-8.53676
-2.95214
-1.02371
-33.6729
-15.1556
-46.6747
-0.27434
-1.49563
-7.3351
-15.7162
-31.7098
-12.5672
28.0641
-27.4051
0.596213
-11.9461
-11.2352
-33.7592
-1.49341
1.13353
-32.7993
-36.6462
11.6654
9.12949
3.3354
-9.85412
-11.2433
-28.5127
30.188
-62.781
15.0854
-16.972
9.3155