/*--------------------------------*- C++ -*----------------------------------*\
  =========                 |
  \\      /  F ield         | OpenFOAM: The Open Source CFD Toolbox
   \\    /   O peration     | Website:  https://openfoam.org
    \\  /    A nd           | Version:  7
     \\/     M anipulation  |
\*---------------------------------------------------------------------------*/
FoamFile
{
    version     2.0;
    format      ascii;
    class       surfaceScalarField;
    location    "400";
    object      phi;
}
// * * * * * * * * * * * * * * * * * * * * * * * * * * * * * * * * * * * * * //

dimensions      [0 3 -1 0 0 0 0];

internalField   nonuniform List<scalar> 
22555
(
0.00435237
-0.0705228
0.0971916
-0.0310212
0.000598538
0.0025284
-0.000770415
-0.00235649
-0.0223607
-0.00351622
0.0227789
0.00309809
0.00396067
-0.00347251
-0.00436114
0.00387299
0.0672988
-0.169248
0.0325169
0.069432
0.00264902
0.000676871
-0.00272729
0.073036
0.0366934
-0.0764609
-0.0332685
0.079789
-0.0628618
-0.0335931
0.0166659
0.0271954
-0.126493
0.10301
-0.00371257
-0.0103263
-0.0184256
0.0211703
0.00758167
0.0505369
-0.0769664
0.0861084
-0.0596789
-0.0286075
0.00119326
-0.00758475
0.0349989
0.00427483
-0.0472982
0.010899
0.0321245
-0.172316
0.138866
0.0347975
-0.0013473
-0.104285
-0.0126751
0.0941576
0.0228026
0.00226493
0.000532836
-0.00570969
0.00291192
0.0704734
-0.0527724
-0.0351233
0.0174223
-0.0858609
0.0578945
0.0555063
-0.0275399
-0.027809
0.0209832
0.0684701
-0.0616443
-0.0307911
-0.0723694
0.0325118
0.0706487
0.00460538
-0.00526089
0.0059908
-0.00533529
-0.118334
0.140578
0.12678
-0.149023
-0.00747478
0.00736104
0.0233062
-0.0231925
-0.00218141
0.00105958
-0.000911697
0.00203351
-0.0477883
-0.0824176
0.0134939
0.116712
0.0406605
0.0555098
-0.0345665
-0.0616038
3.05979e-05
-0.00313171
0.00124284
0.00185829
-0.0786228
0.0170573
0.0134932
0.0480723
-0.0643115
0.0624982
0.0892342
-0.087421
-0.0511768
-0.0825842
0.0611112
0.0726498
-0.0682955
0.059819
-0.00441505
0.0128915
0.115572
-0.0972769
0.0845902
-0.102885
-0.102623
-0.0851122
0.0954305
0.0923046
0.00272262
0.0847269
-0.081438
-0.00601147
0.00520781
-0.00472214
-0.00546885
0.00498318
0.184031
-0.0462842
-0.151141
0.0133941
0.111151
-0.13958
-0.0691837
0.0976134
0.066543
-0.03246
-0.146703
0.112619
0.0904147
-0.0462662
-0.114118
0.06997
-0.0446345
0.05767
0.0217372
-0.0347728
-0.0430502
-0.0487965
0.0574588
0.0343879
0.115992
-0.112822
-0.0058379
0.00266772
-0.100758
0.140378
-0.0413032
0.0016838
-0.00613291
-0.0191197
0.0174918
0.0077608
0.0694235
-0.0591615
0.0475894
-0.0578514
-0.0601523
-0.0489122
0.0826357
0.0264288
0.0171177
-0.100558
0.0576247
0.0258158
0.00537267
-0.00979733
0.0121156
-0.00769085
-0.00312855
0.00375301
-0.000854431
0.000229965
0.0462904
0.175076
-0.119028
-0.102338
-0.00472103
-0.0131057
0.0109198
0.00690688
0.0833821
0.0414979
-0.0755918
-0.0492882
-0.00644495
0.00680573
0.017271
-0.0176318
-0.0660953
0.00329325
0.0668081
-0.00400612
0.0305029
-0.0621852
0.0538155
-0.0221332
0.060827
0.0529689
-0.0598909
-0.053905
-0.0128567
0.0144381
0.0203314
-0.0219128
-0.000202954
0.00192208
-0.00246572
0.000746647
0.161088
-0.0948117
-0.0199864
0.0259148
-0.0122213
0.00902095
-0.0227145
-0.011753
0.0455299
-0.0289234
-0.0048535
0.052244
0.0521745
-0.06011
-0.0443085
0.175722
-0.0141691
-0.0229536
-0.138599
-0.00139936
-0.00176562
0.00194517
0.00121979
0.0473072
0.0505258
-0.0603062
-0.0375268
-0.164932
0.106355
-0.00594922
0.0645264
-0.0294318
0.0943462
-0.0525115
-0.012403
-0.00387902
-0.0041197
0.0041495
0.00384926
0.00110189
-0.00488819
-0.0225909
0.0263772
0.00606723
0.001368
-0.00536607
-0.00206917
0.0630561
0.0869102
-0.0411266
-0.10884
0.132946
-0.04602
-0.0829958
-0.00393068
0.0695193
-0.115115
0.104554
-0.0589584
0.0303404
-0.0283122
0.101877
-0.103905
0.0254191
0.0490062
-0.0116779
-0.0627475
-0.0533103
0.144732
-0.119393
0.0279715
-0.0075781
0.00139051
0.000505294
0.00568229
-0.0681988
0.0108938
0.0574758
-0.00017066
0.0410128
0.146777
-0.12339
-0.0643999
-0.0354221
0.0197499
-0.00427627
0.0199484
0.00862891
0.00674609
-0.00673985
-0.00863509
-0.00250951
0.0136927
-0.0129682
0.001785
-0.00451274
0.0050853
-0.000572567
0.0182928
-0.0216648
-0.0252213
0.0285934
-0.025018
0.0169787
-0.0249832
0.0330225
-0.0316533
0.0109295
-0.000417008
0.0211408
0.133388
-0.141749
-0.00727304
0.155667
-0.0128169
-0.0914017
-0.0514488
0.0225208
0.0350986
-0.0199092
-0.0377101
-0.0227674
-0.0408611
0.0349558
0.0286726
0.0970169
-0.0608542
0.103685
-0.139848
-0.0371923
0.0412027
-0.043513
0.0395026
-0.00265335
0.00198059
-0.00145143
0.00212418
-0.0216613
-0.0260173
0.0332089
0.0144697
-0.115833
9.67882e-06
0.0628001
0.0530228
-0.0115299
-0.0231121
0.0350996
-0.000457557
0.0533878
0.0575412
-0.0566315
-0.0542975
0.00495153
-0.00286078
0.009228
-0.0113188
0.00100821
0.0016497
-0.000167967
-0.00249
0.0570989
-0.107268
-0.0747149
0.124884
-0.118377
0.038753
0.0939957
-0.0143713
0.0269762
0.0269642
-0.0256453
-0.0282951
-0.00722136
-0.0224736
-0.0724699
0.102165
-0.141163
0.00936038
-0.0202247
0.152027
0.0416916
-0.0474012
-0.0680135
0.0737232
-0.00691174
0.000569518
-9.38468e-05
0.00643606
0.00199729
-0.00133886
0.00114339
-0.00180183
-0.0850603
-0.0427232
0.0851579
0.0426255
0.123255
-0.104489
-0.00752023
-0.0112457
-0.0532653
0.000731074
-0.00313352
0.0556678
-0.00505876
-0.0701194
0.00020488
0.0749733
0.00770186
-0.0569555
0.00582967
0.043424
0.02816
-0.0351787
-0.00598989
0.0130086
0.0877859
0.0495208
-0.0485376
-0.0887691
-0.00363888
0.00467988
-0.00338605
0.00234508
-0.00870218
0.0116128
-0.100144
0.0972333
-0.0481729
-0.00626729
0.00513608
0.0493042
0.102455
-0.050236
-0.104856
0.052637
0.0450209
-0.0847381
-0.132599
-0.000452411
-0.00277426
0.00441933
-0.00119268
-0.00135848
-0.000947882
0.00268297
-0.000376597
-0.0615569
0.0305386
0.0576296
-0.0266112
-0.0127212
-0.0277409
0.0158919
0.0245702
0.0841018
-0.106146
-0.00554934
0.0275934
0.0235026
-0.0348492
0.00790261
0.00344396
0.0285903
0.0148352
-0.108838
0.0654123
0.119429
0.0235616
-0.0985038
-0.0444867
0.0419263
-0.0566683
-0.0380248
0.0527668
0.0220345
-0.0493753
0.0466713
-0.0193305
-0.0353864
0.00123677
-0.00331107
0.0374607
0.0516949
0.0720398
-0.0543468
-0.0693879
0.0385288
0.0359071
-0.0530896
-0.0213463
0.00205985
0.000976074
-0.00221482
-0.000821068
0.0588914
-0.0402679
-0.00508976
-0.0135337
0.0710134
-0.0523888
-0.00563367
-0.0129908
0.11439
-0.107634
0.0595892
-0.0663452
-0.0658535
-0.0491717
0.0390004
0.0760248
0.00854991
-0.022886
0.0151184
-0.000782303
-0.00203478
0.0058299
0.00555569
-0.00935083
0.0275874
-0.0217399
-0.0909077
-0.0718242
-0.0120978
0.00497408
0.078948
-0.00402561
0.0779875
-0.127272
0.0100295
0.00405697
-0.00948113
0.0055492
0.0254937
-0.0340857
0.00304276
0.0173794
0.130925
-0.101368
-0.0469362
0.0326806
-0.0705894
0.0621785
-0.0242696
0.00229448
-0.00521021
0.005698
-0.00278223
-0.0227655
0.0485608
-0.0582405
0.0324452
-0.0268427
-0.0882058
0.0871706
0.027878
0.0417457
-0.0120947
0.00131467
-0.0309657
0.0878358
-0.0874241
0.0484312
-0.0488429
-0.0363701
0.00290811
0.0221338
0.0113282
0.0863178
0.0102854
-0.0279413
-0.0686618
0.000597445
0.00358651
-0.00262894
-0.00155504
0.0481019
-0.0705888
-0.0390582
0.0615451
-0.128942
-0.0222712
-0.00805171
0.159265
0.0385491
-0.101398
0.110869
-0.04802
0.0428382
-0.0480156
-0.11396
0.119137
0.00493241
-0.00678441
0.0069038
-0.00505171
-0.0842946
0.063878
-0.0472852
0.0677018
-0.11989
0.0981037
0.0247908
-0.00300431
0.00749394
-0.134671
-0.0139855
-0.00389301
0.00794397
0.0423293
-0.0463803
0.0258896
0.142659
-0.0529769
-0.002822
0.00331722
0.00076281
-0.00125805
0.0512771
-0.0405611
0.0453331
-0.056049
-0.0343146
0.0181352
-0.0519051
0.0680845
0.00540842
-0.00553971
-0.00137915
0.00151041
0.125702
0.0614521
0.0145498
-0.201704
-0.151139
0.0154238
0.13166
0.00405483
0.000728925
-0.00226453
0.00156622
-0.0400905
-0.135925
0.111257
0.0647588
-0.0115839
0.0193921
0.0266207
-0.0344289
0.00173869
0.0499066
-0.0578669
0.00622158
-0.0357888
0.0803294
-0.0993202
0.0547796
-0.0026426
0.0386865
-0.0122171
-0.0238268
0.0260231
-0.0343846
0.0440378
-0.0356764
0.00014033
-0.00158738
-0.00230641
0.00375351
-0.00520248
0.00273233
0.0326675
-0.0301974
-0.0847879
-0.0384576
0.00810667
0.115139
0.0277071
-0.0154442
0.00602991
-0.0305618
0.0705173
-0.0701008
0.0301453
0.0391508
-0.0176118
-0.0266687
0.00512978
-0.0139145
-0.0318668
0.054386
-0.00860469
0.00279308
-0.00158635
-0.0041474
0.00294065
-0.00190539
0.000502017
0.0392614
-0.037858
-0.00880005
0.0315179
-0.0072513
-0.0154665
-0.0025539
-0.00689357
-0.0259389
-0.0253903
-0.0286153
0.0237104
0.0302951
-0.0028159
0.00354407
-0.00372288
0.00299469
0.128529
-0.0387912
-0.142487
0.0527486
-0.131975
0.021271
0.0869031
0.0238004
0.0344353
-0.0384007
-0.0213166
0.025282
-0.115758
0.110402
-0.0159169
0.0212721
0.092231
-0.0458312
-0.0320834
-0.0143164
0.015674
-0.0226981
-0.0871629
0.094187
-0.00343835
-0.00401476
0.00357411
0.00314653
0.0718625
0.0132411
-0.0882502
-0.016487
0.0398514
-0.0364105
0.0130462
-0.0388987
0.0618669
0.0207584
-0.0437267
0.0525737
0.0158162
-0.0926011
0.0242112
-0.00577392
-0.0406643
-0.00682711
-0.00194541
0.0714856
-0.00556729
-0.0639729
0.00447637
-0.00603339
0.000442556
0.00111447
0.0112195
0.0871259
-0.0883639
-0.00998146
-0.0949623
-0.0731045
0.116481
0.051586
-0.0486135
-0.10822
0.0574083
0.0994249
-0.011533
0.102907
0.00259221
-0.0939663
0.0512568
-0.0638703
0.0619864
-0.0493729
-0.000319846
-0.0488725
0.0290506
0.0201418
0.0143686
0.0388578
-0.0324056
-0.0208209
-0.0844321
0.0550977
-0.0997384
0.129073
0.091078
0.0648589
-0.132068
-0.0238684
-0.0584794
-0.0717665
0.0686621
0.0615838
-0.0686169
-0.0863486
0.0552889
0.0996766
0.0812255
0.0129004
-0.0371634
-0.0569625
-0.0605744
0.0842728
0.0611773
-0.0848757
0.0329144
0.0685047
-0.0324893
-0.0689298
0.118652
-0.0609887
-0.0873323
0.0296694
-0.00463035
0.00349575
0.00339955
-0.025314
0.0431725
-0.0317729
-0.0400749
0.0547554
0.0333134
-0.0479939
0.000987832
-0.00524688
0.00560061
-0.00134157
-0.0021235
0.00139745
0.000725931
-0.057726
-0.0536141
0.0287682
-0.0320713
0.0248698
-0.0215667
0.0027699
-6.90986e-05
-0.00270075
0.127293
0.000259248
-0.0422971
-0.085255
-0.0358699
0.0456857
0.0586027
-0.0684184
0.0439305
-0.0444194
0.0443552
-0.0438664
0.00437942
0.0615454
-0.0528945
-0.0130304
-0.0626184
0.0500281
0.0430933
-0.0471787
0.0367935
0.0262397
-0.0158545
0.0419149
0.0751219
-0.106079
-0.0109574
-0.0226873
0.00251433
-0.00591775
0.0260907
-0.00298343
0.00277209
-3.59825e-05
0.000247303
-0.0629699
0.0376042
0.0548948
-0.0295292
-0.0398177
0.0564589
0.0167229
-0.0333641
0.0113157
0.00381442
0.0532554
-0.0112299
0.00439855
-0.0464241
-0.0593484
0.0780379
-0.115966
-0.0151475
0.027704
-0.0298381
0.0172815
0.0227179
-0.0253287
-0.0185003
0.0211112
-0.104295
0.134876
0.0271125
-0.0576941
-0.028388
-0.0195076
0.0262308
0.036365
0.0754675
-0.0912943
-0.0205382
-0.0727874
0.0809299
-0.0349852
-0.0322767
0.0439293
-0.0523091
0.0406564
-0.0423117
-0.0414789
0.0934853
-0.0096947
-0.018509
0.0356665
0.0219933
-0.058189
-0.0409467
0.0432982
0.0558376
-0.076581
-0.135996
0.164629
0.0479478
-0.0323674
0.0130422
0.0390981
-0.0197728
0.0872483
-0.107556
0.065368
-0.0450601
0.00325336
0.0457574
-0.012852
-0.0361588
-0.063695
0.0218241
0.0712193
-0.0293485
-0.0182738
-0.00583762
0.0150067
0.00910465
0.0854559
0.0473859
-0.071108
-0.0617338
0.00833406
0.020252
-0.0586759
0.0300898
0.0752026
-0.0736664
-0.000548378
-0.000987873
-0.0626296
0.0498987
-0.0109114
0.0236423
-0.0133073
0.0799244
0.0655159
-0.132133
-0.0406044
0.000874155
0.00518025
0.03455
-0.0147326
-0.084836
0.0788662
0.0207024
0.00462296
-0.0204994
0.0134017
0.00247475
0.0343247
-0.0630739
0.0398443
-0.0110951
0.0468094
0.0712761
-0.0689459
-0.0491397
-0.00436438
0.00547246
0.00984973
-0.0109579
-0.000802236
-0.00798757
0.00878979
-0.0619591
0.0653798
-0.0227132
0.0192925
-0.00133074
-0.00112857
0.00245934
-0.0645899
0.102318
-0.0497905
0.012062
-0.0173762
0.013398
-0.0353777
0.0393559
-0.0100289
-0.11389
0.048791
0.0751277
-0.0147305
0.111502
-0.0068248
-0.0899471
0.00216722
0.00537813
-0.00147812
-0.0711955
-0.0118648
0.0634929
0.0195674
-0.0648892
0.0964058
-0.0973527
0.0658361
0.0463183
-0.0486308
-0.0436633
0.0459758
0.0371258
-0.0601244
0.126514
-0.103516
-0.0671537
-0.0732165
-0.00972077
0.150091
-0.0256787
-0.0412269
0.0366307
0.0302749
0.0180896
0.0678954
-0.0670327
-0.0189524
0.0162735
0.0574449
0.00525652
-0.0789749
-0.00320523
-0.0183605
-0.0272033
0.0487691
0.136775
-0.114777
0.0199178
0.00142028
0.0022367
-0.000863905
-3.10882e-05
0.0038974
-0.00386634
0.0879301
0.0701007
-0.150161
-0.00786959
0.00690613
-0.0544415
0.00693085
-0.00270694
0.00435333
-0.00449172
0.00284539
-0.0784039
0.0722339
-0.0482699
0.0544399
-0.00192904
0.00241849
0.00372582
-0.00421521
-0.114047
0.108023
-0.0425896
-0.00308466
-9.01299e-06
0.0833872
-0.0843809
-0.0504446
0.0514384
0.00733282
-0.00737479
-0.00670305
0.00674508
-0.106649
0.109678
0.0276943
0.00682898
-0.0405899
0.0384983
-0.00473745
-0.00142023
-0.00167156
0.00283416
0.000257621
0.0670415
0.0801375
-0.0394072
-0.107772
0.0355813
-0.028071
-0.0431703
0.03566
-0.00456784
0.00951214
0.000263513
0.0449861
-0.0490608
-0.0357431
0.163922
-0.152787
0.00797377
-0.0191081
0.0894063
0.0499055
-0.0794347
-0.059877
0.0132089
0.00193088
-0.0111198
-0.00402004
-0.0367889
0.134033
0.0638447
0.125161
0.0158353
0.00127684
0.0637913
-0.0538032
-0.0929479
0.0829599
-0.0279548
0.0217059
0.00754369
-0.00129472
-0.120342
0.0403567
0.120998
-0.00506993
-0.00201386
0.000445531
0.00663818
0.00530174
-0.0403896
0.0326467
0.00244116
-0.0279733
-0.127275
0.0149557
0.140293
-0.0349693
-0.000821183
-0.0330238
0.0688143
-0.00961948
0.00571314
-0.00139352
0.00529982
-0.050669
0.0491854
0.0396421
-0.0381585
0.00377953
-0.0328539
-0.0232242
0.0522985
0.0414786
0.0164209
-0.0500798
-0.00781977
-0.0492691
0.0175347
0.0684376
-0.0367032
0.000638347
-0.00311325
-0.00183615
0.00431107
0.0959531
-0.129505
-0.0690708
0.0915764
0.0239552
-0.110691
-0.00484077
0.0690468
-0.0415824
0.0251094
0.0244525
-0.0281173
-0.0124097
0.0160745
-0.0743925
0.0146833
0.00452731
0.055182
-0.037505
-0.011248
0.0247179
0.0240351
-0.0253205
0.035024
0.0190646
-0.0917255
0.117732
-0.0403306
0.0143238
0.0185862
-0.0218858
0.00100719
0.00229241
0.0565226
-0.104553
-0.000382618
0.0241128
0.00834721
-0.0320774
0.0553558
0.0149561
-0.0546336
-0.0156783
-0.07729
0.0172213
0.0764115
-0.0163429
-0.0460768
0.0383897
0.0331062
-0.0479775
0.0219397
0.156935
-0.130898
-0.00367898
0.00147741
0.000371846
0.0018297
0.0552935
0.0284348
-0.0543233
-0.029405
0.0455859
-0.0368563
-0.0201758
0.0114462
0.000993658
0.0051501
-0.00615738
1.36556e-05
0.0260833
-0.0136833
0.039844
0.0195384
0.0445525
-0.0743337
0.0102428
0.0320858
-0.033622
-0.109839
0.111375
0.00190712
0.00508244
-0.135931
-0.0263428
0.149868
-0.0828113
-0.0407137
0.0953544
-0.0803368
0.0875506
-0.102568
0.0736643
-0.0402732
-0.0693134
0.0359223
0.0139746
0.0226589
-0.0207511
-0.0158825
0.119759
-0.0630276
0.0919583
-0.0108132
-0.0159193
0.00757285
0.0191596
-0.0694975
-0.0114185
0.0153835
0.0655325
0.0589915
-0.0103494
-0.0402558
-0.00838631
0.0262792
-0.0258332
0.015517
-0.015963
-0.0320545
-0.0491786
0.0277509
0.0534822
-0.0482005
0.0566711
-0.0339688
0.0254982
0.00440764
-0.00645419
-0.021702
0.0237486
0.0141479
0.0422107
0.00616939
-0.062528
0.0441136
0.133674
-0.0812369
-0.0965512
-0.04721
-0.0546714
0.0512087
0.0506727
0.0115639
-0.10006
0.0124587
0.0760371
-0.0473925
0.104217
0.0282674
-0.0850919
0.0267373
0.0455206
-0.0294696
-0.0427883
-0.111945
0.105299
0.0668497
-0.0602036
-0.123581
-0.0439246
0.139532
0.000946201
-0.00453882
0.000691286
0.00290133
0.0482547
-0.0354983
-0.0413784
0.0286219
-0.0142821
0.00785745
-0.00677505
0.0131997
0.0229702
0.0361249
-0.0239164
-0.0351787
0.0499106
0.00169257
-0.0980871
0.046484
-0.091907
0.0414064
-0.00908787
0.0595885
-0.0941457
0.0140982
0.0931795
-0.013132
0.00372776
-0.000133276
-0.00186962
-0.00172486
0.00373731
0.00496885
-0.00372445
-0.0049817
-0.0208891
-0.03755
0.0390141
0.019425
-0.00108365
-0.0431457
0.0308328
0.0133965
0.0206748
-0.0059443
0.00673134
-0.0214618
0.0848463
-0.0880016
-0.0383608
0.0415162
-0.0409984
0.0249037
-0.0281645
0.0442593
-0.012635
-0.0125159
0.00246364
-0.0737884
0.107778
-0.0802068
0.0462169
-0.0732636
0.0402163
0.0616376
0.0917008
0.0387193
-0.0794041
-0.051016
0.0266729
0.0175277
-0.108876
0.0646753
0.0354126
-0.0792747
0.0671479
-0.0232858
0.0095162
-0.0103682
0.0213652
-0.0205132
0.00344599
-0.000207958
-0.00399396
0.000755963
0.0118752
0.054408
-0.057001
-0.0092822
0.0800458
0.032866
-0.0590621
-0.0538497
-0.0570739
0.0728289
-0.0564719
0.0407168
0.00761416
-0.0096063
-0.00221749
0.00420962
0.00048766
-0.00135336
-0.00193536
0.00280108
-0.0634692
0.099646
-0.0568063
0.0206295
0.0635316
0.0501422
-0.0624171
0.0385208
0.082149
-0.0485245
-0.0721454
0.0868907
-0.0848604
0.0785141
-0.0805444
0.133558
0.0611332
-0.0693732
-0.125318
0.0356242
-0.0231237
0.00582427
-0.0183248
0.0146539
-0.00592034
-0.0273508
0.0186173
-0.0646713
0.02054
-0.0302613
0.0609805
0.010759
0.000148876
-0.0718884
-0.120521
-0.00205846
0.134523
-0.011943
-0.103323
0.1247
0.0658712
0.00409539
-0.00415466
-0.00172376
0.00178305
-0.0764487
-0.0270785
-0.00114815
0.104675
0.0848992
-0.058177
0.0686322
-0.00860823
0.00152425
0.00675834
0.000325646
0.00379268
-0.0015594
-0.00379102
0.00155767
-0.0937902
0.0616066
0.0676965
-0.0355129
-0.0559305
0.104415
0.0563774
-0.104862
-0.035428
0.0299863
-0.0793462
0.0186195
-0.0139828
-0.0338152
0.0291785
-0.115604
-0.0042743
-0.0069224
0.1268
-0.00333696
0.00267517
0.00482644
-0.00416459
-0.00432147
-0.000922036
0.00398834
0.00125515
-0.000646812
0.0048943
-0.00484193
0.000594488
-0.031577
0.0169272
-0.0203215
0.0349714
-0.0415534
0.0384614
-0.0025906
0.00568265
0.124402
0.0156579
-0.126941
0.11485
-0.0508424
0.051243
-0.115251
0.0312251
-0.0113196
0.015646
-0.0355516
0.119438
-0.0171326
-0.0924717
-0.0098341
0.0798958
-0.108839
0.114591
-0.0856475
-0.0315005
0.0184109
0.0146648
-0.00157525
0.029694
-0.0310308
0.0626804
-0.0613437
0.0309233
0.147115
-0.0499676
-0.128071
0.00216065
-0.00310528
0.00305201
-0.0021074
-0.0290715
0.0492972
0.121114
-0.14134
-0.0281413
0.0538853
-0.0491461
0.0234021
-0.127703
-0.0500691
0.0574294
-0.0815238
0.107605
-0.111434
0.0853528
0.0684381
0.100718
-0.0667158
-0.10244
-0.047854
0.128794
-0.121976
0.041036
0.00358081
-0.00289393
-0.000303169
-0.000383625
-0.00804175
-0.0104219
0.0124563
0.00600742
0.0204275
-0.0348327
-0.0898895
0.0091234
-0.00108434
-0.00744194
-0.000597173
-0.073745
-0.0268173
0.0697712
-0.00542175
0.00763103
0.000172506
-0.00238176
0.0130706
-0.0903245
-0.0167298
0.0939837
-0.0429847
0.0544008
-0.00619827
-0.00521784
-0.0768166
0.0812612
-0.070259
0.0658143
0.122841
-0.0250665
-0.105232
0.00745754
0.0894929
-0.0975254
0.0514983
-0.0434657
0.0466997
-0.0415641
-0.119183
-0.00148912
0.00348697
0.0038417
-0.00583956
0.00134731
-0.00044021
0.00267378
0.0413005
-0.117654
0.0770344
-0.000680929
-0.00177957
0.00205309
0.00188712
0.0110361
0.00592328
-0.000335612
-0.0166237
0.121627
-0.114167
-0.0297311
-0.036323
0.0455842
-0.0330406
0.0237794
-0.0962048
0.0740672
-0.0312141
0.0533516
-0.0156652
0.0485104
-0.0468907
0.0140455
-0.0206896
-0.0420684
0.0820772
-0.0193191
0.0331802
-0.00971944
0.00845052
-0.0319113
0.0233117
-0.0370407
-0.0107606
0.0244897
0.00498579
0.0485183
0.00395769
-0.0574618
0.0618929
-0.0671739
0.0378411
-0.0325601
0.0385892
-0.0372401
0.138298
-0.139647
-0.0516513
0.0703705
0.0632435
-0.0819627
-0.0250216
0.0241888
-0.00141604
0.00224882
-0.0222345
-0.0301792
0.0291149
0.0232988
0.0615345
0.0203416
-0.0399366
-0.0419394
0.00211153
0.0183243
-0.0157471
-0.00468872
0.0189584
0.00846956
-0.00463235
-0.0227956
-0.0632383
-0.103701
0.070734
-0.0221475
-0.0505768
0.0149892
0.0577351
0.0122979
0.000233591
0.0263577
-0.0388892
0.0124685
0.0215895
-0.019552
-0.0145061
0.105959
-0.104964
0.0536698
-0.0546651
0.0120676
0.0394348
-0.000319121
-0.0511833
0.010938
0.108489
-0.104592
-0.000413373
-0.0665729
0.0713386
0.00526558
0.0129056
-0.0136757
-0.00449548
-0.0331003
0.0228999
0.0214236
-0.0112232
0.0492078
-0.0317834
-0.0412846
0.0238603
0.0937299
0.00630776
0.0744832
-0.174521
-0.0239038
-0.125496
0.0256473
0.123752
0.0522962
-0.00572987
0.00595629
-0.0525226
-0.044492
0.0656945
-0.0721863
0.0509839
0.00150898
-0.00780316
-0.000617559
-0.00157888
0.000612359
-0.00149479
0.00246131
-0.109165
-0.0285492
0.108684
0.0290299
-0.10487
0.149205
0.0127631
-0.00231476
0.0032945
0.00232825
-0.00330794
-0.00425596
-0.00214927
-0.0458641
0.0522693
0.0462214
-0.081214
-0.0141869
0.0491795
-0.0262021
0.135734
-0.164215
0.0546831
-0.0924079
0.00781925
0.0923628
-0.0077742
0.0286738
-0.0328229
0.00424097
-9.1925e-05
0.112284
0.0201325
-0.13143
-0.000985607
-0.0793133
-0.0508369
0.0839881
0.0461622
-0.11437
0.154867
-0.0493975
-0.0783743
0.0207106
0.0806459
-0.0229822
-0.00278215
0.0385954
-0.00279166
-0.0330215
0.0319285
-0.0266172
-0.0255668
0.0202554
0.144059
-0.0357688
0.0198149
-0.128105
-0.0608558
-0.0547716
0.0430306
0.0725968
0.074715
-0.0984704
0.0924739
-0.0687185
0.146439
-0.0362807
0.00883774
-0.118996
-0.00460264
0.044443
0.0452174
-0.00479304
0.00194415
-0.0423685
-0.00384853
-0.0127315
-0.000386057
0.016966
0.0398451
-0.0409444
-0.0410692
0.0421684
0.0279128
0.117879
-0.102954
-0.0020528
0.000690908
0.0009554
0.000406521
-0.0315411
0.0577116
-0.135336
0.0218354
-0.034306
0.0180687
-0.00559803
0.0971929
0.0992759
-0.0934226
-0.103046
0.0221665
-0.0172766
-0.0630284
0.0581385
0.0293016
-0.0832893
-0.0185802
0.0725679
-0.00806708
-0.0729473
-0.0097188
0.0907332
0.0869765
-0.0586297
0.0589069
-0.0872537
-0.122293
0.133354
0.0198618
-0.0167922
0.085907
-0.0827687
0.0136539
0.0112069
0.0508025
-0.0478615
0.025843
-0.0262973
-0.0195278
0.019982
0.0276625
0.0206995
-0.0253918
0.069428
-0.0421503
-0.0606296
0.0333519
-0.0760601
0.0559012
0.0356629
-0.015504
-0.0895146
0.10138
0.0818191
-0.0936845
-0.000759835
-0.020295
0.00622141
0.0148335
0.105917
0.0535732
-0.0523616
-0.107128
-0.0489262
0.037883
-0.00723746
0.0182806
0.00317329
-0.0876608
0.0842155
0.000271979
-0.00276735
-0.00040444
-0.000669385
0.0038412
-0.102749
0.00136599
-0.00120585
0.102589
0.00519378
0.0205313
0.00387586
-0.0296009
-0.0282986
0.0865099
-0.12821
0.069999
0.0257485
-0.0633034
-0.0243958
0.0619506
-0.0933432
0.0591985
-0.0190916
0.0532363
-0.0767505
-0.0210951
0.0453439
0.0525017
-0.086133
0.0681473
-0.0337784
0.0517641
0.137328
-0.0815234
-0.164419
0.108614
-0.0412302
0.0451592
0.0428803
-0.0468718
-0.00242492
0.06911
-0.0198134
-0.167441
0.0444705
0.124878
0.0126034
-0.0205907
-0.0283828
-0.0703297
-0.0162192
-0.00165688
0.0684006
0.142808
-0.107318
-0.103891
-0.000118898
-0.00387807
0.00494317
0.0203976
-0.0162323
0.0235418
-0.0580858
0.00113412
0.0384485
0.0185032
-0.0140952
0.044761
0.0120757
-0.0427415
0.0808869
0.0820928
-0.109521
-0.0534591
-0.0342056
0.0381681
-0.018503
0.0145405
0.0379851
-0.00992879
0.0233749
-0.0514313
-0.0355202
-0.0161457
0.0331569
-0.000548012
-0.00335697
0.000887248
0.00301776
0.0814577
-0.142978
-0.0443677
-0.033808
0.0272879
0.0508879
-0.0189442
0.0375333
-0.0867086
0.0681196
-0.00889415
0.0510874
0.0657963
-0.0635211
-0.0533627
0.107732
-0.0906646
0.0523565
0.0113195
-0.0182036
-0.00739797
0.0188332
-0.118483
-0.002701
0.10235
0.0789347
0.0692725
-0.0565064
-0.00245897
0.00480706
-0.00409118
0.0017431
-0.102184
0.0781415
-0.0336232
0.0576657
-0.0778984
0.114906
-0.0619635
0.0249556
0.0310777
-0.132036
0.113265
-0.0123068
0.0541216
0.0356789
-0.0190437
-0.0707568
-0.0624392
0.000906694
0.0296213
0.0319112
-0.00208008
0.000813412
-0.103055
0.104321
-0.0226683
-0.015388
0.0180332
0.0200231
-0.00559863
0.012118
0.0189655
-0.0254848
0.0828606
0.00335754
0.0229454
-0.109164
0.00658446
-0.0113894
0.00606712
-0.00126224
0.0975042
-0.0638634
0.0514037
-0.0850445
0.0395344
-0.0229733
0.0214272
-0.0379883
-0.0638777
0.0270173
-0.041038
-0.0324545
0.030189
0.000947647
0.00131787
0.0492112
-0.0983157
-0.038218
0.0873226
-0.0346447
-0.0136414
0.0342619
0.0140242
-0.0485973
-0.0289203
0.00699494
-0.0226977
0.0047065
-0.0144633
-0.149219
0.00251856
0.122797
-0.000927787
0.00189809
-0.059423
0.0584527
0.00475482
0.00448736
-0.00061326
0.0682909
-0.0632487
0.0758448
-0.0398494
0.0184598
0.0416269
-0.0202372
-0.000739539
0.00144259
0.000305152
-0.0430021
0.0478593
-0.0174822
0.0126249
-0.116386
0.05489
0.096572
-0.0350758
-0.0240031
0.0197675
0.0159807
-0.0117452
0.125111
0.0482279
-0.0155191
-0.157819
0.00263525
-0.00169059
-0.000944575
0.153586
-0.0332626
-0.0256483
-0.0946755
-0.0538188
0.0409972
-0.0018796
0.0147012
0.0518149
-0.0458606
0.048792
-0.0547463
0.0144439
-0.00949966
-0.0176654
0.00553985
-0.00174372
-0.00851715
-0.00757683
0.00669071
-0.00606507
0.00695113
-0.0625504
-0.0607402
0.0724012
0.0508893
0.0406841
-0.040076
0.021213
-0.00610998
0.124572
-0.139675
-0.0451918
0.0349707
0.00994852
0.000272529
0.000110275
0.00304077
-0.00210416
-0.00104686
0.0665014
0.0463873
-0.0866567
-0.026232
-0.0831261
-0.054006
0.0589759
0.0781563
-0.133141
-0.00632251
0.0408136
0.09865
0.00361697
-0.00182488
0.00374778
0.0225518
0.0250212
-0.0317877
-0.0157853
0.0471477
0.0499527
-0.0497933
0.0864741
-0.0922448
0.0937008
0.00760903
0.00325139
-0.0116202
0.14137
-0.0487964
-0.14371
0.0511367
0.0544426
-0.0683358
0.0134798
-0.00122715
0.00298284
-0.00320087
0.00144521
-0.0772844
0.109908
0.0218143
-0.0544384
0.0118783
-0.0152355
-0.0949407
0.0982978
0.0550505
-0.070598
-0.071991
0.0875385
-0.0260512
0.00968133
0.0245433
-0.00817336
0.0333918
-0.0925064
-0.0495642
0.108679
0.0287971
-0.0274438
-0.00974029
0.00838693
0.0162874
-0.0177487
-0.0418769
0.0433381
-0.0422203
0.061324
0.0561986
-0.0753023
0.00542528
-0.00535333
-0.00480642
0.0047345
0.0367454
-0.0468477
0.0296159
-0.0195136
-0.0626005
-0.0240905
0.0781
0.00859099
0.0184299
0.043597
-0.042805
-0.0192219
0.0161528
0.0474757
-0.0451985
0.0660245
-0.0560541
-0.0448583
0.0348878
-0.0632504
0.067294
0.0727926
-0.0768362
-0.0598351
-0.0108158
0.0640812
0.00656967
0.0184363
-0.0380225
0.068794
0.00275929
0.0611713
-0.0534483
-0.0104823
0.010354
0.0167934
0.045356
-0.0725034
-0.0286975
0.0252152
-0.0328406
-0.0736022
-0.0756806
0.0758323
0.0734505
0.0714811
0.0677979
-0.100436
-0.0388431
-0.0903633
0.0893824
0.0712481
-0.0702672
0.0489971
-0.0574525
-0.00239402
0.0108495
-0.067032
-0.0817223
0.0726942
-0.00294692
-0.00106668
0.00278647
0.0688825
0.0834651
-0.111991
-0.0652175
0.0494455
-0.0228426
0.0386145
0.0532506
-0.0265631
-0.0840971
0.0574096
-0.075612
0.0169872
0.0818882
-0.0232634
-0.0410127
-0.0207762
0.0424541
0.0193348
0.0128212
-0.132585
-0.0351529
0.132718
0.0369167
-0.0282655
-0.0721342
0.038454
-0.0386892
0.0680453
0.0638456
-0.0673893
-0.0645016
-0.0550609
0.0520176
0.014508
-0.0183881
0.0329123
-0.0290323
0.0038518
-0.00560867
0.0338614
-0.0321045
0.123692
-0.020664
0.0608938
-0.0537924
0.144288
0.0434255
-0.133921
-0.0115138
-0.0103464
0.0133945
0.00846572
0.0849566
0.0954765
-0.0770907
-0.103342
0.0177106
-0.00404299
0.00112686
-0.0147945
0.126375
-0.055095
-0.160996
0.0897162
-0.0697207
0.0295725
0.0612841
-0.021136
0.118923
-0.00939791
0.0249058
-0.00140978
-0.0229895
-0.00791114
0.0323104
-0.0453354
0.0365206
-0.0169757
0.0257905
0.013349
-0.00899599
-0.00549918
0.00114613
0.183827
-0.0377933
-0.153974
-0.150333
-0.0414735
0.0327534
-0.0589622
-0.00942888
0.0703552
-0.00196409
0.0375156
-0.0453058
0.00795367
-0.000163379
0.004741
0.038935
-0.00669217
-0.0369839
-0.00272455
0.00240466
-0.0011165
0.00143641
-0.00842271
-0.0102823
0.0131196
0.00558537
0.00719985
-0.0130995
0.0137571
-0.0726659
-0.111126
0.135776
0.00130706
-0.00337119
0.00303709
-0.000973048
0.0374438
0.0326313
-0.0414145
-0.0286606
0.0134278
-0.00600104
0.0102839
-0.105673
0.119816
-0.00226554
-0.0676534
-0.00973394
0.00705761
0.0127544
-0.0345685
0.0605285
-0.0387144
0.00688834
-0.0131401
-0.00249762
0.00874941
0.00689187
-0.0548073
-0.103223
0.108796
-0.114763
0.0411034
-0.0351362
-0.0357432
-0.0447931
0.047322
0.0332143
-0.0664562
0.0767831
0.000988752
-0.0521636
0.0534726
0.0046978
-0.00600678
0.0583862
0.00940379
0.00261472
-0.0704047
0.00262026
-0.000507846
-0.00259155
0.000479152
-0.0557399
0.0585299
0.011718
-0.00431592
-0.0728222
0.022622
0.0545161
-0.0348688
-0.134324
0.00175204
0.0647237
-0.0400627
0.0728432
0.0332195
-0.0461824
0.110208
-0.0972452
0.0315654
-0.00012481
-0.0430175
0.011577
0.0180065
0.0836743
-0.0822174
-0.0194634
0.0546209
-0.0511895
-0.0874401
0.0840087
0.0521998
0.0960544
-0.0254129
0.0704006
-0.0634078
0.0729031
0.0890147
0.0158768
-0.00124943
-0.103642
0.0274486
0.015912
-0.024478
-0.0188826
0.104288
-0.0363127
-0.00679729
-0.0611783
0.0117791
-0.0276986
-0.137866
0.06258
-0.0171208
0.0924068
0.043674
-0.0663814
-0.0479987
0.0707061
0.147335
-0.0244133
-0.107498
0.000209507
0.00265353
-0.00286309
-0.00795264
0.0583991
-0.0571295
0.00668312
-0.0134566
-0.0491044
0.0221831
0.0403779
0.0497896
-0.0465594
-0.0975316
0.0943012
-0.0869941
0.0457798
0.0920492
-0.050835
0.0421147
-0.063407
-0.104461
0.125753
0.120139
0.0284707
-0.121866
-0.0267441
0.0293373
-0.0930264
0.000219923
-0.0729856
-0.0101685
0.0687893
0.0143648
-0.110546
0.0791134
0.0167001
-0.00133396
0.00147218
-0.00207851
0.00194026
-0.00664208
0.0103706
-0.00901915
0.00529062
-0.107721
-0.0576756
0.105041
0.0603556
0.00649924
-0.00571517
-0.00882924
0.00804518
0.0245734
-0.0170127
0.0127247
-0.0202854
-0.0624063
0.0311572
-0.0208049
0.052054
-0.0856136
0.12818
0.0418748
-0.0844417
-0.101222
0.0821771
0.114998
-0.0433661
-0.0162341
0.0455049
-0.00354482
0.0376597
0.0754555
-0.10957
-0.0115407
0.0592842
-0.0339816
-0.013762
-0.031939
-0.0291632
0.0555469
0.00555533
0.0172454
-0.0170475
-0.0233933
0.0231954
0.00762908
-0.0435598
0.0456302
-0.00969947
0.0309239
-0.0159536
-0.0451921
0.0302218
0.018599
-0.0338415
0.135382
-0.106679
-0.00823845
0.0500286
0.0839495
0.11864
-0.120655
-0.0819342
0.115596
-0.00289592
-0.131413
0.0187127
-0.0259687
0.0257271
0.0321702
0.0195903
0.0229761
-0.0162879
-0.0262784