/*--------------------------------*- C++ -*----------------------------------*\
  =========                 |
  \\      /  F ield         | OpenFOAM: The Open Source CFD Toolbox
   \\    /   O peration     | Website:  https://openfoam.org
    \\  /    A nd           | Version:  7
     \\/     M anipulation  |
\*---------------------------------------------------------------------------*/
FoamFile
{
    version     2.0;
    format      ascii;
    class       volVectorField;
    location    "400";
    object      U;
}
// * * * * * * * * * * * * * * * * * * * * * * * * * * * * * * * * * * * * * //

dimensions      [0 1 -1 0 0 0 0];

internalField   nonuniform List<vector> 
11372
(
(12.125 1.92726 0)
(-0.471594 -1.11012 0)
(7.35222 -2.6356 1.25498e-17)
(-1.97014 -0.270601 1.37599e-20)
(11.0087 0.226262 0)
(-0.598275 -1.14126 0)
(11.7246 1.3133 -2.30173e-18)
(12.7608 1.46987 -7.75069e-18)
(11.5913 1.81858 0)
(5.95664 5.7382 0)
(11.4818 0.948526 -1.94667e-19)
(6.4761 2.42528 1.06696e-18)
(12.4931 -2.43993 -1.66142e-18)
(10.7217 1.45172 1.91704e-19)
(8.26071 -0.32997 0)
(-1.8788 -0.0641735 5.85366e-18)
(12.2261 0.687077 6.2933e-18)
(11.8412 1.98721 -2.58961e-18)
(9.74151 1.93819 -7.07105e-19)
(9.6733 1.00324 -6.87168e-18)
(2.1864 0.519282 -6.19912e-18)
(10.6947 0.497106 3.07183e-18)
(8.26685 -8.81077 6.37797e-19)
(0.980154 0.426343 1.93194e-17)
(11.686 0.563361 9.46609e-19)
(6.65556 1.35016 -3.79332e-19)
(-0.834734 -0.436949 -3.85821e-21)
(10.3505 2.17029 -2.86107e-19)
(9.86239 0.875119 9.07413e-18)
(9.78872 0.992059 0)
(9.64379 1.75923 -1.90493e-18)
(9.95437 0.855061 -5.04314e-20)
(11.1686 0.0899121 -2.47291e-18)
(10.7463 1.73315 -2.2509e-19)
(3.19308 1.91068 -2.71819e-20)
(10.2407 1.15838 -2.59249e-19)
(11.0161 0.674067 2.08344e-18)
(11.0144 1.74103 2.5933e-18)
(12.054 0.355196 -4.81221e-18)
(11.6459 2.9238 -1.13787e-17)
(12.9049 1.62087 1.27372e-17)
(9.88984 0.867401 2.58337e-18)
(10.7738 1.20806 0)
(6.01915 -0.0609298 -6.01979e-18)
(10.235 0.198783 7.56588e-18)
(12.3948 1.70044 -5.04926e-18)
(11.4252 -0.122443 -1.35054e-18)
(1.99888 0.973399 -4.53155e-18)
(-0.519699 -1.97458 -5.79658e-18)
(11.1142 0.350591 -2.69133e-18)
(8.18136 0.948275 3.76957e-18)
(11.5818 0.948331 -6.74248e-18)
(5.99439 -5.07551 5.78325e-18)
(9.46694 -0.390959 7.89203e-18)
(9.82691 1.693 0)
(11.4181 1.71434 -3.00833e-18)
(5.86837 1.80335 1.51899e-17)
(-0.45524 -1.6324 -1.1697e-17)
(11.136 0.313641 -4.67498e-19)
(7.01693 0.218899 0)
(12.2105 -4.01399 -2.70592e-18)
(8.52155 -0.591242 0)
(10.3455 1.21927 4.01711e-19)
(-0.224068 1.02927 -1.94531e-17)
(6.39042 1.91316 -5.08907e-19)
(10.4764 1.25124 -1.38327e-18)
(12.3227 2.0742 3.26817e-18)
(-1.73139 -0.299436 -3.44353e-18)
(7.05139 -4.88626 8.57476e-18)
(1.87685 0.594342 0)
(10.8343 0.412305 -1.70136e-18)
(11.2346 1.04121 -2.15053e-18)
(10.9644 0.817524 -2.47155e-20)
(11.5608 0.527196 3.01845e-18)
(12.5034 2.78474 3.37881e-18)
(9.92725 0.905075 5.78374e-20)
(-2.22092 -0.223734 -3.96654e-18)
(10.5658 1.98554 6.38205e-19)
(9.94319 0.811865 -6.9835e-18)
(13.7006 2.62763 0)
(-2.38425 -0.178895 -4.79332e-18)
(3.69751 -5.65607 -8.34141e-19)
(0.724993 -2.34661 -4.53383e-17)
(8.91645 -3.56276 -1.68441e-18)
(16.2524 -1.2267 -6.29483e-18)
(11.2627 8.89137 6.53999e-18)
(10.1423 1.14284 0)
(11.3971 1.71048 -1.24723e-20)
(8.92982 0.751511 -3.4666e-18)
(13.1478 4.69385 -7.82486e-18)
(10.9043 0.683162 -1.7124e-18)
(10.2114 -0.753869 -9.96376e-20)
(-0.998303 -1.01109 0)
(9.56996 -2.82783 1.29126e-18)
(10.4906 0.0406556 3.28712e-18)
(3.51758 1.1417 1.06002e-18)
(12.3135 1.20627 1.60009e-17)
(1.45287 1.04603 -2.40721e-19)
(-0.39016 0.447717 8.84367e-18)
(10.43 1.33898 1.40175e-18)
(10.0304 0.450187 3.66042e-18)
(8.36044 -0.214304 9.42199e-18)
(9.92036 0.600675 5.57369e-18)
(10.9926 0.454086 8.95657e-19)
(9.72122 0.354595 -6.13534e-18)
(1.9036 2.35912 1.38467e-17)
(-0.252202 -1.21535 -1.53959e-17)
(9.87052 0.59847 -1.48823e-17)
(10.3354 1.48857 -3.46387e-19)
(9.111 0.715732 0)
(10.3075 1.98002 -6.86899e-19)
(8.79721 0.258591 1.93468e-18)
(8.96267 -6.89478 -5.0853e-19)
(9.81382 1.2265 -7.09019e-18)
(-0.88978 0.348863 8.28939e-18)
(10.07 0.455484 -4.62834e-19)
(13.0786 0.55977 2.63766e-18)
(10.0001 1.135 0)
(10.7564 1.45565 0)
(-0.512148 -0.445242 -8.49409e-18)
(-0.448604 0.336934 2.69352e-18)
(12.857 1.11129 2.07829e-17)
(2.40434 -0.0910566 4.33694e-18)
(10.1543 1.55268 1.31655e-18)
(7.39184 -0.376545 3.06914e-18)
(9.76282 0.922281 3.15369e-18)
(11.6937 0.908305 1.84403e-18)
(12.6445 0.625432 5.7333e-18)
(10.8831 3.03589 -3.08814e-19)
(13.1439 2.21369 -6.71156e-19)
(12.1493 1.65799 -1.4347e-17)
(11.419 3.51403 8.07751e-19)
(-0.853055 -0.730202 -2.11791e-17)
(12.7103 -1.17295 1.07703e-18)
(12.3749 0.877504 0)
(11.0613 1.06068 7.61062e-18)
(11.7003 1.83286 -4.66777e-18)
(2.43764 -0.804487 -6.32718e-19)
(1.76526 4.22021 -1.27221e-17)
(9.88814 0.621175 0)
(6.60965 -0.537814 5.57121e-21)
(9.93353 0.909569 0)
(3.26357 0.452568 5.92891e-18)
(8.62294 -4.94132 -1.57166e-18)
(10.9959 0.234053 -5.18936e-20)
(12.6723 1.22691 -6.01182e-20)
(-1.68519 -0.486769 4.23955e-18)
(9.541 2.02443 0)
(9.67313 1.61883 0)
(12.7012 0.553787 5.36079e-18)
(10.6424 0.0798665 -1.59546e-18)
(10.8336 7.15062 1.79861e-18)
(11.9522 0.0518086 4.36705e-18)
(-0.903313 -0.862327 0)
(10.0167 1.50425 -3.67485e-18)
(10.4806 0.730174 -3.48035e-19)
(11.5337 1.5082 -2.80377e-18)
(11.2774 1.40508 -3.89325e-18)
(0.843252 0.917397 0)
(9.67215 0.280278 -1.69762e-17)
(11.2063 0.542455 1.85112e-19)
(11.0142 0.464929 0)
(13.0191 1.71934 7.5627e-18)
(9.95013 0.853872 2.1377e-17)
(-1.0475 1.8066 4.07639e-18)
(11.8743 -1.08209 0)
(12.6092 1.99901 6.12288e-18)
(-2.10707 0.0167288 0)
(10.9611 0.548149 1.76381e-18)
(10.6222 0.924811 -4.95214e-20)
(-0.529865 -0.39219 4.07774e-18)
(10.4723 0.50198 0)
(8.08419 0.256381 -6.57429e-18)
(12.462 3.32433 -6.63261e-18)
(10.7494 2.23952 1.58767e-17)
(13.3909 5.02928 1.82267e-19)
(9.64283 2.8773 0)
(-0.664546 0.0837847 3.67448e-20)
(13.9676 4.22432 4.35326e-18)
(9.95066 0.408455 -6.81891e-18)
(9.2154 -3.51202 -2.47065e-19)
(9.57312 1.12914 1.46686e-17)
(12.6506 6.67127 -1.83534e-17)
(9.60219 1.5554 -2.81793e-18)
(1.00691 0.0567001 0)
(11.4611 0.580056 1.36765e-18)
(6.87036 4.03609 0)
(13.1709 2.26705 2.97701e-18)
(8.32922 0.324724 0)
(-0.598418 -1.82179 -7.5577e-20)
(10.8526 0.38565 -2.60827e-19)
(9.77635 1.30785 0)
(8.1924 0.701435 2.73359e-17)
(11.9193 1.12594 -4.48458e-18)
(12.4928 0.500069 6.07046e-19)
(11.9582 0.734079 1.4707e-18)
(-1.57924 -0.255364 9.96819e-18)
(9.7959 0.938703 4.00122e-19)
(12.9061 4.1649 1.87581e-18)
(11.8311 2.56027 -1.74955e-18)
(9.77773 1.06483 -9.91981e-18)
(9.16704 0.727226 -1.75919e-18)
(9.47001 0.795259 0)
(0.700511 0.238937 4.5075e-18)
(10.3129 1.67538 0)
(11.3528 1.2676 4.262e-18)
(10.4342 0.403796 -1.52468e-18)
(11.5644 1.13083 -9.17876e-19)
(11.5575 1.68625 1.69196e-19)
(8.03008 1.87558 1.24671e-18)
(14.0493 -0.183549 -2.06298e-19)
(11.3608 1.28052 -1.88403e-18)
(10.9204 1.69061 0)
(9.70692 0.881968 -5.65945e-18)
(9.83867 0.616138 0)
(9.90698 -0.205406 1.2354e-17)
(9.86013 0.847255 -1.89845e-17)
(9.62208 1.05769 2.54899e-20)
(11.3086 0.857111 6.73762e-18)
(-1.8252 -0.15126 1.11155e-17)
(11.0083 1.6527 -3.14021e-18)
(9.6695 1.09564 -7.69367e-18)
(1.65737 -2.39367 1.94746e-17)
(-0.267343 1.12772 -5.34431e-17)
(9.86147 0.626034 5.66498e-18)
(9.95923 5.67437 9.56513e-19)
(-1.08165 -0.913995 2.09747e-19)
(10.7306 0.621504 -1.41152e-18)
(9.87017 0.511195 0)
(10.3576 -0.625284 -3.87252e-18)
(9.74052 2.51877 -3.13448e-18)
(9.86614 1.70484 2.50884e-18)
(12.4396 2.18516 -3.64681e-18)
(10.6223 1.3919 -3.19539e-19)
(6.51877 0.940914 5.35196e-19)
(-1.18702 0.536218 6.05034e-18)
(12.9131 2.50971 0)
(4.90403 1.26586 2.6502e-19)
(9.81616 -0.292018 -3.54847e-18)
(11.6237 -2.19087 2.7114e-18)
(9.95602 0.859554 -1.51488e-17)
(13.7515 3.11546 3.24283e-18)
(9.66354 -2.54425 4.99746e-18)
(10.1398 1.33304 3.2815e-18)
(8.93356 -3.25675 1.47765e-18)
(10.4183 2.0292 0)
(9.61387 1.59482 9.19698e-18)
(10.4043 2.23606 5.22626e-19)
(9.95746 1.97118 -6.85036e-18)
(12.8618 6.33915 -9.86609e-18)
(10.6829 -0.871474 -4.4882e-19)
(10.5874 0.504823 -4.30981e-19)
(16.9682 6.99359 1.60344e-18)
(10.9794 1.71215 -1.21527e-18)
(13.5798 2.32618 -7.68562e-18)
(9.44527 0.215101 4.10672e-18)
(5.00741 0.0106864 -3.90924e-18)
(10.0189 1.19576 -1.40092e-18)
(8.96137 2.3198 4.60574e-20)
(10.1636 -0.0278969 1.42795e-18)
(12.8273 1.83832 -1.11631e-18)
(9.91064 0.901361 -2.28322e-18)
(5.50922 1.86373 6.24335e-18)
(9.77436 0.634834 3.30732e-18)
(6.58566 -2.90388 -5.95089e-18)
(11.968 2.08666 3.96598e-18)
(9.36729 2.09708 0)
(2.17432 -0.12571 -6.05841e-18)
(0.857937 4.15314 2.53805e-17)
(12.0297 -0.0498897 0)
(0.373999 0.913486 -2.05314e-17)
(11.8975 1.93151 6.35409e-18)
(9.6658 4.18605 -2.57776e-19)
(12.2735 0.956021 0)
(12.0217 0.461039 0)
(1.89206 0.587423 0)
(10.098 -0.0118535 -1.24473e-18)
(10.2617 1.20958 2.79413e-19)
(10.2519 -0.548885 4.16488e-18)
(7.75443 1.3039 -6.85485e-19)
(11.1948 0.200337 1.98007e-18)
(10.0528 -0.865207 0)
(9.58692 0.164274 0)
(10.2052 -0.2348 -1.74154e-18)
(11.298 1.06224 -2.73958e-19)
(10.5803 1.36213 1.48139e-20)
(0.613053 0.0121588 7.28731e-18)
(-1.28279 1.7626 -6.99848e-17)
(10.453 1.21562 1.68734e-18)
(5.8077 1.9061 3.21541e-18)
(1.04073 -0.112467 0)
(9.85181 1.0427 4.9721e-18)
(-1.26357 -0.438504 1.18226e-17)
(10.3859 0.440956 -1.69e-18)
(1.5583 0.605911 -3.58821e-18)
(10.09 1.70287 -8.38208e-18)
(2.32489 0.170937 0)
(9.92289 1.1414 5.60676e-18)
(11.0589 -2.19558 -4.24525e-19)
(-1.19078 0.0888592 -5.37255e-18)
(9.94463 0.892992 8.17839e-18)
(13.0414 -0.0727103 0)
(2.84006 1.98811 -1.73172e-17)
(5.85316 1.47743 2.24069e-18)
(11.0129 0.419956 -7.98607e-19)
(11.8488 1.52896 -4.29852e-18)
(3.7838 -4.93893 1.45685e-17)
(11.1038 0.318393 0)
(9.94527 0.850436 3.84932e-18)
(11.4614 0.778895 0)
(7.50369 -6.31075 -2.81261e-19)
(9.94541 0.804823 2.16289e-17)
(-1.00708 -0.451044 -7.54264e-18)
(15.485 -0.395106 2.52557e-18)
(10.1777 0.477835 -3.37476e-18)
(10.0149 2.24949 -6.00126e-19)
(1.58045 0.190221 -1.54599e-17)
(12.2025 -1.04309 3.61673e-18)
(12.1354 1.90025 -8.65754e-20)
(13.4369 1.97002 -6.06086e-18)
(10.1303 3.32538 -1.67051e-19)
(-1.62971 -0.317432 0)
(11.2004 0.101873 -1.66365e-18)
(9.69287 0.774529 0)
(9.75601 1.09059 1.54477e-18)
(6.46041 0.898085 2.05455e-20)
(12.8363 0.64658 0)
(8.5932 -1.84963 0)
(10.2506 5.53414 2.14927e-18)
(11.7118 1.15321 -4.79211e-19)
(2.54291 1.12016 -7.64942e-18)
(9.79616 0.96739 6.50021e-18)
(6.628 5.29882 0)
(12.8824 1.30152 -5.1333e-18)
(11.2026 -0.363935 -2.84542e-20)
(12.429 2.70697 -5.07629e-18)
(10.7426 0.476462 5.3671e-19)
(-0.373414 1.19138 0)
(10.2693 2.37734 4.28767e-18)
(11.4386 2.61568 1.78737e-19)
(-1.72721 0.277626 0)
(7.08963 -0.715855 0)
(10.374 -0.381609 0)
(11.1654 1.30243 5.47937e-18)
(10.4604 0.695767 1.02928e-20)
(11.0243 0.0988931 5.38159e-19)
(10.7909 1.18778 4.08204e-18)
(11.4599 1.37008 0)
(7.27469 0.723879 3.75661e-18)
(9.95805 0.87238 7.5722e-19)
(3.32103 7.04663 -2.24972e-18)
(12.2542 1.95251 3.11067e-19)
(8.58797 0.827041 1.40302e-18)
(8.01063 -1.33283 5.92907e-18)
(9.72974 0.037627 8.00004e-18)
(13.0501 1.48772 4.97978e-18)
(6.01797 1.08783 2.21156e-17)
(8.78514 0.584251 -3.55311e-18)
(11.0621 1.91223 -2.08999e-18)
(9.80317 1.13457 0)
(10.5708 1.12033 0)
(11.8631 1.00535 2.57659e-18)
(9.59379 -0.40953 1.65485e-19)
(9.41756 1.58472 -8.24408e-19)
(10.1469 0.525143 -3.2009e-18)
(-0.971608 1.35585 2.97616e-17)
(12.273 2.31624 -5.42804e-18)
(5.01905 2.24689 0)
(8.08579 2.18125 1.32617e-17)
(9.66537 0.668457 4.10256e-18)
(9.74552 0.725006 0)
(11.6475 0.300265 -2.07583e-19)
(-1.37229 -0.0293195 1.80713e-17)
(-1.89974 -0.402639 4.13046e-18)
(10.0406 3.99235 4.38317e-19)
(7.8169 2.11341 -2.68384e-18)
(6.24064 0.198488 -5.52531e-18)
(9.85178 0.67917 -1.05326e-17)
(13.0357 1.47848 -1.69001e-20)
(6.15272 0.859235 0)
(10.5925 1.58091 -6.22978e-19)
(9.75694 0.949903 -3.10615e-20)
(11.2798 -0.12339 0)
(11.9129 1.3726 0)
(10.0576 -0.225141 0)
(6.21187 7.02476 -1.43185e-18)
(-0.880145 -0.912043 5.82676e-18)
(10.3278 2.81316 1.49487e-19)
(12.6528 0.80884 1.98517e-19)
(11.2495 1.61964 4.78233e-18)
(4.32567 0.132911 2.78958e-18)
(0.875364 0.413439 6.25787e-18)
(10.0611 1.46562 -3.18754e-18)
(11.5264 1.6269 5.3583e-18)
(10.0688 1.19198 1.65921e-18)
(11.5357 1.37771 2.94679e-19)
(10.6421 0.491494 0)
(15.9533 3.81342 0)
(9.95578 -5.83823 0)
(12.8371 0.561787 3.53783e-18)
(9.11565 0.464797 7.17707e-19)
(10.8716 0.843811 -6.19597e-19)
(10.9635 1.69077 -7.70899e-19)
(-1.66359 -0.52397 -5.37104e-18)
(11.3634 0.347084 -1.36281e-19)
(10.7432 1.19237 -1.62543e-18)
(3.24768 -0.0602147 -8.01658e-18)
(0.701671 -0.34209 2.88167e-18)
(11.5705 0.98814 8.4859e-19)
(11.2992 0.507332 3.30194e-18)
(9.95507 0.448881 0)
(3.68937 -0.106448 -8.55579e-20)
(11.0729 0.513839 3.5412e-19)
(-0.732238 -2.07465 -1.38757e-17)
(-1.00982 1.20168 1.37311e-17)
(-0.829892 -1.89844 6.79833e-18)
(10.3148 0.969665 1.77407e-17)
(9.55995 -1.87022 0)
(10.1134 0.881153 0)
(11.1608 0.780883 -1.59835e-18)
(4.23189 -0.782812 6.78642e-18)
(10.7125 0.782099 8.99742e-19)
(9.95083 0.695225 3.6477e-18)
(8.36438 10.3044 1.60831e-18)
(9.75966 1.7889 -4.41732e-18)
(9.93012 0.91385 -1.36803e-17)
(-0.828035 1.30957 6.33e-18)
(11.0931 1.82986 -3.12657e-18)
(8.87704 1.52376 -2.91459e-18)
(9.94955 0.816215 1.41571e-17)
(10.813 1.44123 0)
(10.5535 0.459809 -9.42486e-19)
(10.4078 0.614769 1.94987e-19)
(-1.12859 -1.54686 1.08377e-16)
(1.71642 1.08083 -3.36242e-18)
(10.1175 1.32039 0)
(1.03601 0.842213 -3.8378e-18)
(9.69276 1.02659 6.77064e-18)
(2.7852 -0.0283485 5.20361e-18)
(11.7525 0.647094 2.17622e-18)
(11.643 4.8321 -1.90052e-18)
(10.9405 1.63175 5.42955e-18)
(9.93502 0.682336 4.3671e-18)
(11.554 0.835612 0)
(10.3629 0.43079 -2.78185e-18)
(-1.97919 0.125403 -5.15234e-18)
(-1.13369 -1.45083 -3.02344e-17)
(9.86046 0.818337 3.81899e-18)
(-0.568792 1.13292 6.11503e-18)
(5.43112 0.506373 -8.75e-18)
(10.3924 0.741237 -1.21522e-19)
(13.2578 -1.78244 2.53286e-19)
(11.5875 0.70204 -6.16278e-18)
(8.62149 1.79971 3.64427e-18)
(12.5564 0.112731 0)
(8.53697 0.0421686 -3.21008e-18)
(4.4051 -0.866674 -3.4604e-19)
(13.1407 0.391575 8.51292e-18)
(9.81308 0.328079 0)
(10.9313 0.340526 -2.09262e-19)
(6.01232 0.965207 1.03045e-18)
(6.7325 1.54041 9.83945e-18)
(10.2116 0.328906 1.30348e-17)
(11.3175 -2.11144 2.64763e-18)
(3.951 -0.0863237 -2.09225e-19)
(5.557 6.21602 0)
(11.5581 0.759448 -4.97511e-18)
(12.9213 0.814734 1.29115e-18)
(3.93903 1.51412 3.94416e-18)
(8.62909 -2.99291 0)
(11.2623 1.56931 -3.52412e-18)
(8.02699 1.63094 -1.52343e-19)
(9.7547 0.890207 -2.86522e-18)
(11.0631 1.91117 0)
(4.51617 1.64046 0)
(7.78181 4.26569 4.96423e-18)
(12.4297 -1.62787 2.76193e-18)
(10.6822 0.4828 1.01632e-19)
(10.7692 1.11589 -1.76171e-19)
(7.95374 2.02393 -6.38643e-18)
(9.70159 0.930808 1.86003e-17)
(2.15578 1.9505 0)
(-1.08195 0.590325 4.18339e-17)
(10.1257 0.474558 0)
(10.4912 1.37259 -8.72132e-19)
(-1.18246 -1.93179 -1.51916e-17)
(5.1546 -0.58499 6.10717e-19)
(12.5292 1.09753 4.00088e-18)
(10.9214 0.404607 0)
(10.2512 1.41884 0)
(8.69721 0.537935 -1.66578e-18)
(10.0731 1.10596 2.92878e-19)
(10.1851 1.74479 4.61835e-18)
(10.356 0.55756 0)
(11.9624 1.4361 -3.1693e-18)
(8.79866 -1.65623 -2.32155e-18)
(8.25948 -0.508058 1.36762e-19)
(10.6178 1.31294 2.69489e-20)
(9.75422 1.01332 1.49251e-18)
(9.90976 0.791022 8.0684e-18)
(9.92518 0.979078 -2.09195e-17)
(12.715 0.600258 -1.16955e-18)
(11.8647 6.76642 9.26289e-18)
(2.9994 0.188921 -3.90787e-18)
(9.16769 1.3299 1.00112e-17)
(11.2175 1.38567 0)
(0.770943 0.00202299 0)
(10.1018 0.496144 -2.23349e-18)
(13.5728 0.155519 -6.50927e-18)
(11.0782 0.222868 -8.00633e-19)
(10.787 1.48103 2.3408e-18)
(11.1355 -0.313155 0)
(12.1922 -0.266536 4.54478e-19)
(9.90523 0.641937 -1.70121e-17)
(9.93955 0.920241 1.53637e-17)
(9.98159 0.369146 0)
(8.74012 0.656491 -7.05662e-18)
(8.59317 4.38028 -5.45825e-20)
(8.15188 2.33427 0)
(11.7456 -0.513428 0)
(12.2939 1.71744 5.4168e-18)
(10.1179 0.563757 2.17853e-18)
(1.81985 -0.413646 -2.51465e-19)
(11.1504 1.54161 -3.02063e-18)
(8.81197 2.25451 6.65672e-18)
(10.316 -0.0305062 -3.82751e-19)
(-0.342517 -1.31114 0)
(10.5857 1.45933 -9.53916e-20)
(10.4015 0.554672 -1.75637e-18)
(11.7982 1.07914 0)
(10.5245 2.31886 2.8308e-19)
(10.8924 1.25548 5.32446e-18)
(10.4865 2.09819 6.90992e-19)
(12.0743 0.926107 3.0236e-18)
(10.8532 0.566977 1.04544e-17)
(8.34025 1.96185 0)
(10.4464 -1.56392 4.28964e-19)
(10.5516 0.672601 -7.06347e-19)
(10.3536 7.12963 -1.58094e-18)
(9.69391 1.55689 -3.20885e-18)
(11.0157 0.328096 -2.60677e-18)
(-0.973522 1.49013 -8.84734e-18)
(9.32839 -3.75126 -1.34072e-18)
(9.0309 2.11086 9.52987e-18)
(9.03164 3.77554 0)
(11.6306 1.24945 -6.07844e-18)
(9.32655 -1.36297 -6.28205e-18)
(11.0989 -1.50217 1.81731e-19)
(12.5636 6.1101 5.32237e-18)
(-0.31139 -1.32036 -7.48867e-18)
(10.409 0.387723 2.64439e-19)
(10.8709 -1.52017 0)
(12.7621 0.471807 -5.19019e-18)
(9.87273 0.8608 3.28748e-19)
(10.5921 -0.29936 1.83202e-18)
(10.2668 0.210047 -1.33291e-19)
(5.34884 2.167 0)
(9.88089 1.11169 2.35179e-18)
(11.3022 -0.0485685 0)
(-0.740628 0.428192 -4.70588e-19)
(9.94943 0.887634 -9.13776e-18)
(10.3406 1.59061 1.48919e-18)
(10.5715 0.735673 8.62412e-20)
(12.7649 -0.349902 5.92005e-18)
(5.4441 1.22632 -1.06208e-18)
(11.4869 1.1584 1.81343e-18)
(6.17997 3.84065 -2.11147e-18)
(4.51514 0.280154 4.27059e-18)
(12.3662 1.04368 -9.8998e-19)
(1.33914 -0.414429 3.6272e-18)
(10.4987 1.26716 1.2427e-19)
(10.3846 4.55434 7.17567e-19)
(10.3042 1.59658 1.382e-19)
(11.309 11.3288 -2.83389e-18)
(9.92583 0.346062 -4.25279e-18)
(8.51261 3.19657 7.90957e-18)
(12.1421 1.89052 4.6779e-18)
(10.2186 11.4986 7.26113e-18)
(10.8435 1.1459 5.31476e-19)
(10.1308 2.03656 -5.9085e-19)
(-2.30849 -0.154959 8.06771e-18)
(11.6502 1.30994 3.24584e-18)
(13.2004 1.99303 3.7365e-18)
(0.0469298 0.3943 1.41307e-17)
(11.7476 -2.60453 -1.81811e-18)
(10.6163 0.201678 1.48508e-18)
(5.65298 9.09883 1.84008e-19)
(10.8278 1.27971 1.85465e-18)
(-1.07938 -0.646133 -1.20622e-17)
(10.7549 0.451813 6.23683e-19)
(6.44533 -0.608245 8.14024e-19)
(11.4735 1.9019 3.87949e-18)
(1.99679 0.0950167 -3.15662e-18)
(4.7015 0.543684 0)
(-1.71049 -0.0862964 7.53514e-20)
(11.6294 -0.63829 3.10307e-18)
(12.0402 -1.0842 -7.05952e-18)
(11.443 0.205256 0)
(11.6889 1.17251 0)
(0.688913 -0.641357 -1.63047e-17)
(12.2967 0.759545 3.78453e-18)
(12.0991 1.39695 0)
(9.96297 1.09461 -4.79802e-18)
(2.53847 0.735816 0)
(8.65736 4.87772 0)
(7.58882 2.03633 -9.88841e-20)
(10.4716 1.23057 4.65528e-19)
(1.19889 -0.197477 2.61959e-18)
(10.11 0.605543 2.35077e-19)
(9.23702 1.88461 7.73929e-18)
(-0.751388 -1.35578 1.53382e-17)
(10.6782 1.0088 -9.25759e-20)
(9.80271 0.771942 -6.67614e-18)
(9.96663 1.22934 3.3108e-18)
(10.2704 -6.75411 1.19983e-18)
(12.0925 0.0992917 5.56386e-18)
(10.9397 -6.93964 2.96794e-18)
(10.664 -2.11563 -8.28068e-19)
(12.3559 1.10078 3.99772e-18)
(-2.10877 -0.246603 -6.11071e-22)
(12.4185 1.16309 1.00801e-17)
(12.7814 1.17391 -3.66496e-18)
(8.34313 0.988923 8.6445e-18)
(8.33074 1.10346 1.00603e-17)
(9.80448 -0.324904 3.02743e-18)
(11.4167 0.789002 -5.2876e-18)
(12.8331 0.390379 -2.0456e-18)
(12.4559 -1.43104 -2.77171e-18)
(11.5834 0.659461 1.54855e-18)
(10.4267 2.3279 -4.7746e-19)
(13.3205 -2.01208 -2.87051e-18)
(9.8755 0.92464 0)
(12.0663 1.50021 6.51379e-18)
(10.612 0.406753 -7.6995e-19)
(12.4644 -2.81486 2.52744e-19)
(12.3166 1.62446 -1.4248e-17)
(-0.69886 -1.34586 0)
(9.94533 0.79029 -2.45932e-17)
(10.3576 3.29283 -2.28873e-19)
(11.5958 -0.301721 1.68978e-18)
(9.9309 0.233723 0)
(10.4677 -1.96709 -6.23595e-19)
(10.4738 0.525551 -1.42069e-20)
(10.1096 0.607314 4.96284e-19)
(9.69789 0.979741 8.15472e-20)
(10.3906 1.3983 6.53202e-19)
(11.489 1.70276 3.37268e-18)
(8.56163 0.344125 -8.38118e-18)
(9.30881 0.843284 0)
(10.9841 0.418495 -6.76108e-19)
(10.9102 0.42592 -1.21118e-18)
(4.80835 -1.90024 0)
(11.3528 1.02713 3.81341e-18)
(3.90722 -7.17153 1.26877e-17)
(10.031 1.15354 4.15675e-19)
(8.25175 -0.72482 -9.43874e-18)
(9.92482 0.896466 -9.14264e-19)
(12.085 1.81324 -9.97073e-19)
(9.60411 -0.128467 -2.49299e-18)
(2.5532 -5.14246 -2.12928e-17)
(10.349 0.434408 0)
(10.7495 1.53058 0)
(9.30389 0.414509 2.36723e-18)
(15.2057 -1.30924 1.16682e-18)
(4.44151 -0.688055 0)
(-0.509873 -1.49232 2.76571e-18)
(4.33331 -1.47916 9.33392e-18)
(5.12308 2.54911 -9.0859e-19)
(11.3386 1.43052 -3.79862e-18)
(-0.0275417 -0.552797 -7.63734e-20)
(13.0749 -1.27235 3.45826e-19)
(4.75515 -7.46897 0)
(9.79267 0.795093 7.04425e-19)
(9.7102 1.50005 0)
(5.03118 0.796472 -1.74464e-19)
(2.01794 -0.790466 -2.63837e-18)
(10.622 0.900972 1.51268e-19)
(10.0318 0.598314 5.13225e-18)
(9.5629 -0.287039 0)
(11.6344 -0.0135623 -3.96565e-18)
(9.64764 2.34684 0)
(10.92 2.63697 -8.6321e-19)
(-0.400504 -0.894462 -3.36654e-18)
(10.7569 0.749468 -6.32688e-18)
(12.9262 1.1869 -2.43957e-18)
(10.5255 0.641435 2.62714e-19)
(10.4927 1.23484 -4.54787e-20)
(11.4358 -0.0419408 -4.86352e-18)
(9.95317 -1.35113 2.80827e-19)
(11.9134 -0.151083 2.10284e-19)
(9.96461 0.518829 -7.96329e-18)
(9.93066 0.656046 3.97384e-18)
(9.99033 0.677734 -4.95009e-18)
(11.9277 0.514408 -1.3775e-18)
(9.49729 -2.10145 -4.45175e-18)
(11.9038 0.326446 -1.35561e-18)
(8.90728 -2.99771 -7.99271e-19)
(9.90028 0.935959 4.29185e-18)
(12.2533 1.29829 -7.83787e-18)
(10.535 0.943244 -1.86777e-18)
(-1.01347 0.801802 -4.6882e-17)
(12.2737 -0.564682 7.64123e-19)
(12.5391 4.69403 -2.16441e-19)
(11.0516 -0.179472 0)
(11.5814 0.795394 0)
(10.0231 0.60198 1.01153e-17)
(9.98732 0.669069 6.40984e-18)
(10.053 1.43477 6.52328e-18)
(10.5285 2.033 -2.06413e-18)
(9.79975 0.623058 1.1478e-17)
(-0.850349 0.0773149 -3.99735e-17)
(3.92563 0.158233 1.52103e-20)
(10.0461 0.483277 -1.1603e-17)
(-2.45985 -0.128231 4.57397e-18)
(9.28843 -2.65836 0)
(9.44728 0.112482 0)
(10.6801 1.16981 0)
(11.1781 0.144197 2.73269e-18)
(9.15622 3.60289 0)
(11.2722 0.979047 2.51847e-18)
(12.9364 0.93803 1.48766e-18)
(11.2039 3.40919 -1.22524e-18)
(7.57738 0.271641 6.77729e-18)
(11.2576 4.24232 2.01069e-18)
(12.957 1.94117 3.26328e-18)
(10.0053 0.662022 -9.74101e-19)
(10.2149 1.19677 1.95775e-19)
(10.7537 0.075557 9.46294e-19)
(11.1483 1.14943 1.02162e-18)
(8.30174 -0.64134 -4.44885e-18)
(11.4571 -8.08954 -1.51807e-19)
(10.0283 1.17023 0)
(11.1132 -0.387332 4.52758e-18)
(11.3954 1.5643 2.5074e-18)
(11.0358 0.431963 6.28946e-20)
(12.3312 4.14272 -7.1141e-18)
(7.15633 3.9113 6.65378e-18)
(11.0015 2.26522 6.94445e-19)
(11.0913 1.77621 1.54959e-18)
(10.5324 0.805746 -8.22593e-19)
(10.035 3.79418 0)
(14.8123 -1.77575 4.47173e-18)
(11.717 2.56241 -2.74653e-18)
(12.145 2.44653 -4.86106e-18)
(12.5974 1.31998 2.62412e-19)
(8.05366 0.0728431 -9.83992e-18)
(8.35919 1.23905 -4.53907e-18)
(-1.05911 0.971623 1.81049e-17)
(2.3602 0.829909 3.23846e-18)
(-1.94047 -0.275456 -6.06947e-18)
(8.23488 0.574745 8.48396e-19)
(10.7542 8.87881 1.19339e-18)
(11.6642 -4.00122 6.11004e-18)
(7.66668 0.957423 -3.3921e-18)
(12.6908 2.52156 2.04698e-18)
(9.84349 0.646604 9.50154e-18)
(11.3618 1.59527 5.69889e-18)
(9.99022 1.19299 3.52783e-18)
(0.532926 0.0915361 1.68911e-18)
(5.79314 1.34544 6.33511e-19)
(-0.193896 -0.880615 -6.98582e-18)
(2.97915 0.454259 3.62475e-18)
(12.9796 2.58851 0)
(9.64765 1.53307 0)
(11.2448 0.66815 4.23252e-18)
(6.92775 1.76542 -2.47798e-18)
(9.71948 0.955844 -1.2207e-17)
(10.6494 0.56511 2.34829e-18)
(12.8058 3.61161 -1.74349e-19)
(5.29774 -0.137057 -5.32816e-19)
(-1.39325 0.73033 0)
(9.94923 1.10644 -6.35079e-18)
(12.7343 0.771292 3.38731e-18)
(10.7322 0.980003 -9.02852e-19)
(9.87166 -2.61065 3.19728e-18)
(9.93688 0.830634 8.29185e-18)
(4.4967 -5.76933 5.1714e-18)
(12.0878 2.87324 7.46461e-18)
(9.22031 3.89952 -1.76413e-18)
(9.93905 0.833085 2.27697e-18)
(-1.26445 -0.238625 -2.5973e-18)
(16.6459 -7.70177 0)
(9.07403 0.110477 3.93837e-18)
(13.5117 0.104653 4.21566e-18)
(10.8005 -1.08988 4.18228e-19)
(13.6356 2.08018 2.81466e-18)
(9.94593 0.839034 -6.24873e-20)
(12.2752 1.76844 -1.82512e-18)
(2.84523 -5.65714 8.56446e-19)
(2.79164 1.11561 -4.20205e-20)
(8.45388 -0.610487 1.3655e-17)
(11.1242 0.954984 5.88122e-18)
(10.1092 0.507425 -9.84883e-20)
(10.7218 -1.24656 0)
(13.6836 -0.839843 -4.29856e-18)
(0.014562 -0.858615 0)
(11.8345 2.45734 0)
(3.03077 -1.65164 4.16762e-18)
(11.222 0.0525767 3.20168e-19)
(11.2736 2.13549 4.52994e-18)
(9.37712 1.09566 -1.3237e-17)
(10.789 1.96811 -3.7753e-19)
(11.1919 -0.634967 -7.19717e-19)
(-0.979496 -1.91409 -2.01696e-17)
(13.9309 2.07266 -7.97256e-18)
(10.0996 5.27188 5.01714e-19)
(8.88474 3.95696 -4.92776e-18)
(9.97938 1.41996 -6.22669e-18)
(13.1243 1.55664 5.58034e-18)
(-0.330853 0.865503 1.71396e-18)
(9.89227 1.09101 -2.99271e-18)
(-0.538278 -1.23158 -1.86009e-18)
(11.052 0.152913 -3.90032e-19)
(10.1193 -3.57441 5.48551e-20)
(9.92099 0.732042 -1.12644e-18)
(11.0937 0.611321 3.45305e-18)
(2.89055 1.39658 8.74572e-18)
(6.62244 -0.247051 -5.23299e-18)
(10.9194 0.46368 0)
(5.22917 -0.487544 9.29937e-18)
(12.0049 -3.74106 -3.30317e-18)
(-0.267279 0.376866 -1.28121e-19)
(7.91265 7.22093 6.02334e-19)
(-0.443576 0.575988 -2.19114e-17)
(10.4998 1.46733 -5.14031e-19)
(7.05055 -0.402546 -8.22256e-18)
(-0.382105 -1.28928 -1.64688e-17)
(3.5479 1.62174 0)
(11.4935 5.17437 2.47932e-18)
(10.7132 1.37506 1.9306e-18)
(0.151533 0.550779 -1.15294e-17)
(9.33068 -0.522563 1.46978e-17)
(9.6604 -0.441182 2.61182e-18)
(8.22143 0.0657299 1.97996e-17)
(10.4573 0.348203 5.01882e-18)
(-1.08966 1.04802 9.42895e-18)
(15.9143 -1.81814 4.31912e-18)
(12.6775 -2.57612 2.04508e-19)
(11.1188 1.65962 -1.92122e-19)
(9.60739 2.27356 2.13515e-18)
(-0.675699 -1.26604 -1.02044e-17)
(-1.21468 -0.196942 0)
(-0.823527 -0.364096 1.1755e-17)
(5.75999 0.709881 -2.00977e-17)
(10.6997 2.03715 6.52306e-20)
(8.85606 1.41122 -1.26091e-17)
(12.3403 3.96091 0)
(7.90539 -0.296468 0)
(12.3631 0.812256 -8.38386e-20)
(10.3121 -0.454034 -2.10973e-18)
(14.2502 9.49851 1.54024e-17)
(12.2888 2.62738 3.54067e-19)
(12.3242 0.829482 1.21885e-17)
(8.46219 5.27745 2.2451e-19)
(9.43021 -0.573993 -9.36443e-18)
(-0.0503974 -1.09481 9.53644e-18)
(11.0266 0.307326 0)
(5.0537 -3.96595 4.92363e-18)
(9.73564 0.128168 -1.09812e-17)
(10.2862 0.503257 8.57109e-19)
(-0.602966 0.219667 7.71506e-18)
(10.4101 4.10802 4.22416e-19)
(10.3591 1.05859 9.70065e-19)
(12.3287 -3.07569 -2.89292e-18)
(13.3019 4.05258 4.22493e-18)
(11.3552 1.34577 -2.57461e-18)
(9.93822 0.783772 3.88657e-18)
(6.10861 1.93734 3.07664e-17)
(10.5861 1.30935 -2.16223e-19)
(9.98175 0.498613 -7.90984e-18)
(10.1512 0.452862 1.28533e-18)
(11.2866 0.0277606 1.21111e-18)
(0.931492 -0.722613 2.57375e-18)
(9.8484 0.830208 -5.16822e-18)
(9.92479 0.764567 1.46111e-17)
(12.7707 2.48517 0)
(8.22158 1.12049 -2.54894e-18)
(8.95602 -1.22008 9.16902e-19)
(-2.07423 -0.102147 -5.20454e-18)
(12.1913 1.14669 -3.65228e-18)
(11.5025 0.544925 -1.36756e-18)
(12.2763 -2.55139 2.54779e-18)
(12.4855 0.352373 -1.27838e-18)
(10.7473 0.498842 1.20907e-18)
(10.3369 1.83648 8.78606e-20)
(11.185 1.44935 0)
(6.51205 -2.06931 -1.00629e-17)
(10.4429 -0.0117294 0)
(11.1546 1.79979 1.29989e-18)
(10.5167 0.517341 0)
(10.8824 0.0603373 -3.8518e-20)
(-0.626965 -0.334725 -8.4081e-18)
(9.43867 1.91195 -6.53762e-19)
(10.3755 0.764535 1.72859e-19)
(11.6817 -1.92202 1.45274e-18)
(9.67205 -0.500281 0)
(10.2949 0.162515 5.15897e-18)
(10.0252 -0.672453 2.52686e-19)
(10.0507 0.602868 -2.11949e-18)
(7.59738 3.34034 -3.82637e-18)
(9.95032 0.8383 7.02546e-18)
(11.2158 0.160919 -1.86203e-18)
(10.2922 0.462659 -3.6027e-18)
(9.9589 0.868304 2.59508e-17)
(13.0622 2.24591 -2.00546e-18)
(13.0091 1.105 -3.03676e-18)
(10.6985 1.85298 -1.20411e-18)
(11.2336 0.00826151 -2.37252e-18)
(10.0585 0.611746 0)
(0.169016 -0.626378 5.56516e-18)
(10.5994 0.616653 -4.35812e-19)
(10.1589 0.553926 -5.58461e-19)
(9.14133 1.10761 5.46571e-18)
(8.35242 1.77698 4.79541e-18)
(11.9309 3.60834 -2.97792e-18)
(10.0439 2.51679 8.70065e-19)
(10.6126 -0.77091 -2.41272e-18)
(10.7299 1.77788 9.28241e-19)
(12.1779 1.2994 1.32162e-17)
(11.112 -5.99466 -3.45249e-18)
(9.24684 -1.05474 0)
(11.323 1.33483 2.93837e-20)
(10.4488 0.325379 -3.37131e-18)
(-2.02685 -0.0533766 1.04256e-19)
(10.0915 1.90597 -5.21301e-20)
(-1.99486 -0.157643 -2.59445e-18)
(11.5681 1.26449 -3.39994e-18)
(-0.669519 -1.64398 1.04644e-20)
(8.61386 -1.66314 1.81977e-18)
(10.8745 1.62108 1.80764e-19)
(10.0129 0.650299 -2.27388e-18)
(10.2885 -1.98013 0)
(11.5365 2.39025 3.56895e-19)
(7.99862 -3.44667 -7.58539e-19)
(9.95779 0.863927 -4.18158e-17)
(7.14987 -4.25423 7.82305e-18)
(0.587498 0.416906 -2.80816e-17)
(9.95309 1.64511 -1.47226e-19)
(9.95483 0.87719 2.60713e-20)
(12.5317 -3.93415 -1.86807e-18)
(9.3924 1.95717 -4.61055e-18)
(10.0127 2.11093 -1.8797e-18)
(11.382 0.405046 -3.04389e-20)
(9.84897 1.47297 -5.22867e-18)
(8.95681 0.996225 1.23975e-17)
(11.0797 0.350471 3.1446e-18)
(-1.90919 -0.212543 2.39232e-20)
(9.98607 1.66692 -3.50157e-19)
(11.0553 0.637424 1.46581e-19)
(9.89906 1.44667 7.86798e-18)
(11.5181 0.642021 0)
(10.1332 1.72051 1.12625e-17)
(10.3059 2.67303 -3.14069e-19)
(12.9481 0.333195 -4.44727e-18)
(10.6262 -2.77292 4.29605e-19)
(11.0044 1.70774 2.08191e-18)
(12.1924 0.153499 -1.20202e-17)
(10.9135 -0.653466 1.04598e-18)
(-2.36285 -0.0932733 -3.49507e-18)
(10.0836 1.29513 2.68725e-18)
(10.3941 -0.0275126 7.72389e-19)
(14.9578 -2.23944 -4.74507e-18)
(11.4501 0.553385 8.06143e-19)
(10.4597 0.90547 0)
(9.95388 0.730578 1.07255e-17)
(8.99775 -2.1942 0)
(9.9433 0.696956 -2.15393e-17)
(11.1478 1.6906 -2.31057e-19)
(11.7535 0.332946 2.42594e-19)
(4.53467 4.20266 2.22268e-18)
(12.2513 -1.59507 4.45338e-18)
(11.1392 1.63996 5.24596e-18)
(5.23639 1.69558 -6.5907e-18)
(10.5123 1.18422 -6.85503e-19)
(12.8547 -0.640104 1.08966e-17)
(10.0091 0.563033 -2.59609e-18)
(10.6739 0.422968 -1.33509e-19)
(10.6557 -1.45058 7.91146e-19)
(10.5701 1.61727 0)
(8.25279 -3.76752 1.08889e-18)
(-1.21982 -0.77271 -4.74496e-18)
(10.674 0.45569 3.50894e-19)
(8.23349 2.0196 1.6799e-17)
(5.21556 0.668739 7.4002e-18)
(12.2346 0.564422 0)
(9.47733 0.959897 -1.84169e-18)
(-1.48099 -0.0516761 0)
(9.91923 0.677061 -2.22668e-18)
(9.76712 0.0713578 6.48648e-18)
(8.36582 -2.71667 6.12027e-20)
(12.2901 0.846389 0)
(9.78629 0.709136 8.57576e-18)
(9.72311 1.0861 -5.15993e-18)
(11.2833 1.36469 -3.87204e-18)
(7.35198 6.17914 3.42554e-18)