/*--------------------------------*- C++ -*----------------------------------*\
  =========                 |
  \\      /  F ield         | OpenFOAM: The Open Source CFD Toolbox
   \\    /   O peration     | Website:  https://openfoam.org
    \\  /    A nd           | Version:  7
     \\/     M anipulation  |
\*---------------------------------------------------------------------------*/
FoamFile
{
    version     2.0;
    format      ascii;
    class       volScalarField;
    location    "350";
    object      nuTilda;
}
// * * * * * * * * * * * * * * * * * * * * * * * * * * * * * * * * * * * * * //

dimensions      [0 2 -1 0 0 0 0];

internalField   nonuniform List<scalar> 
11372
(
0.0591629
0.0190734
0.10466
0.138082
0.105347
0.0262854
0.127099
0.0510376
0.103476
0.0741778
0.132255
0.111484
0.0932969
0.13853
0.205898
0.118398
0.113798
0.121914
0.135838
0.137573
0.0956124
0.143517
0.0198898
0.0135774
0.129519
0.247178
0.184489
0.135596
0.138691
0.138499
0.13629
0.139778
0.0962448
0.13862
0.06312
0.144197
0.140558
0.108549
0.0981231
0.11764
0.0534958
0.1389
0.141341
0.108876
0.140054
0.0738818
0.130878
0.2393
0.00615127
0.130519
0.0133038
0.12974
0.0603577
0.125796
0.137997
0.131403
0.107302
0.0123747
0.127528
0.119229
0.077314
0.153936
0.144425
0.0322234
0.216217
0.143932
0.107317
0.209217
0.0734524
0.0762193
0.138848
0.13838
0.141137
0.124623
0.097376
0.139518
0.170443
0.136976
0.139933
0.0361777
0.248044
0.0223608
0.00271971
0.101197
0.0135152
0.0285475
0.141772
0.11424
0.133143
0.0654279
0.141702
0.131835
0.0632058
0.111418
0.139333
0.2811
0.10144
0.279425
0.16552
0.141312
0.14026
0.127575
0.140064
0.138735
0.137728
0.034118
0.0331253
0.139623
0.140796
0.134095
0.137226
0.13145
0.0466221
0.139508
0.268567
0.140442
0.0467078
0.140476
0.138135
0.272502
0.257378
0.058089
0.297582
0.140187
0.120694
0.138046
0.12827
0.0942341
0.124621
0.0422746
0.0923596
0.113954
0.0115456
0.0975444
0.0982982
0.140021
0.125754
0.276608
0.0205897
0.13978
0.239788
0.139718
0.0892575
0.0797077
0.10465
0.0745932
0.161421
0.134463
0.137123
0.0266016
0.139311
0.0623314
0.12264
0.0481579
0.14008
0.141935
0.121956
0.13226
0.272745
0.137146
0.138407
0.138593
0.0445937
0.139649
0.0157957
0.116449
0.0935834
0.148557
0.140752
0.142388
0.184763
0.146522
0.0826272
0.0957284
0.0983178
0.0571373
0.128583
0.239027
0.0422434
0.139901
0.102224
0.137016
0.0487308
0.08738
0.190906
0.0277202
0.103985
0.0424321
0.128986
0.0159639
0.13637
0.138973
0.128724
0.120962
0.103857
0.115205
0.215579
0.138362
0.0763022
0.11794
0.138733
0.134401
0.136187
0.299744
0.139895
0.13496
0.140993
0.129676
0.129149
0.12601
0.0291011
0.132919
0.109005
0.137573
0.139243
0.108188
0.138643
0.137303
0.137495
0.113835
0.0665241
0.137797
0.0208463
0.00121652
0.139475
0.0929204
0.00138711
0.141498
0.139514
0.13293
0.131752
0.138146
0.10219
0.141161
0.102233
0.055008
0.075949
0.268416
0.114194
0.108465
0.139923
0.0431447
0.114351
0.140793
0.105309
0.136846
0.13685
0.105013
0.136735
0.0520469
0.12986
0.144655
0.0128884
0.110483
0.0321111
0.135417
0.136009
0.140514
0.129771
0.138114
0.0715965
0.139249
0.227865
0.13837
0.095514
0.118356
0.145766
0.193454
0.003615
0.120552
0.00269332
0.0860377
0.114645
0.105719
0.105163
0.0852386
0.138025
0.14137
0.133697
0.230506
0.112993
0.130832
0.136145
0.136406
0.0361783
0.141273
0.203608
0.00179619
0.143944
0.218664
0.160409
0.139562
0.1872
0.141047
0.0962461
0.139295
0.137016
0.140181
0.113676
0.0562885
0.140014
0.0757516
0.0556263
0.248504
0.137064
0.110811
0.0334672
0.128291
0.140015
0.131719
0.0512658
0.139987
0.283841
0.0192107
0.140698
0.134535
0.163226
0.111001
0.114652
0.0295676
0.124678
0.101208
0.101065
0.137456
0.138599
0.0856074
0.0781907
0.118957
0.0942979
0.127035
0.283209
0.13847
0.0868416
0.0562809
0.0932699
0.100703
0.142785
0.052438
0.133517
0.123707
0.167216
0.185911
0.135133
0.137221
0.141857
0.0969937
0.142433
0.132369
0.122439
0.139963
0.0179755
0.110527
0.131199
0.119979
0.136662
0.0449111
0.110188
0.132004
0.0918506
0.139331
0.142994
0.122663
0.133245
0.172063
0.140666
0.041977
0.108018
0.0943057
0.125333
0.137356
0.137941
0.11256
0.0709978
0.1573
0.116701
0.123783
0.111878
0.1391
0.0336085
0.0992154
0.140325
0.138085
0.132674
0.113666
0.136265
0.0554374
0.111206
0.129189
0.0901736
0.134591
0.0857281
0.0219916
0.140287
0.130018
0.140743
0.126179
0.14387
0.0138672
0.0639784
0.0791526
0.13371
0.141616
0.113843
0.132382
0.124174
0.142662
0.0651112
0.240688
0.130874
0.132421
0.140039
0.292555
0.138442
0.00967155
0.0393389
0.0126155
0.0335889
0.121476
0.140621
0.138765
0.266777
0.142364
0.140223
0.0163351
0.136984
0.140065
0.0169892
0.101548
0.132197
0.140009
0.138545
0.141231
0.141638
0.00315617
0.257911
0.140728
0.289549
0.137792
0.0184725
0.120917
0.0931979
0.138165
0.140134
0.129612
0.140973
0.135817
0.00281511
0.138677
0.0225087
0.102695
0.141829
0.0798065
0.127512
0.129846
0.103799
0.102542
0.244665
0.0448699
0.138546
0.130677
0.272769
0.117005
0.0705666
0.112483
0.162521
0.0611717
0.128799
0.0484611
0.263197
0.107617
0.12587
0.12667
0.137922
0.0784188
0.0883772
0.108247
0.101763
0.143332
0.141566
0.155574
0.137627
0.040244
0.0109071
0.140655
0.141267
0.00508757
0.264969
0.0919456
0.137746
0.140894
0.0298852
0.144061
0.13913
0.144981
0.120679
0.121535
0.125848
0.142992
0.138329
0.139427
0.140162
0.0274086
0.0589693
0.13171
0.134335
0.13432
0.0111298
0.140616
0.0191318
0.112119
0.0610401
0.0932003
0.115494
0.139929
0.140076
0.139973
0.131883
0.110675
0.125115
0.123238
0.0808917
0.140841
0.297831
0.129554
0.12926
0.1384
0.0512012
0.140956
0.0252655
0.124406
0.133702
0.140769
0.136035
0.116863
0.142054
0.177767
0.123774
0.141846
0.0661237
0.137576
0.129588
0.0310964
0.0988934
0.131109
0.118407
0.126031
0.125754
0.121059
0.0598365
0.0405314
0.140932
0.122343
0.0880362
0.138751
0.13568
0.140213
0.0992448
0.140022
0.133075
0.273985
0.13976
0.140356
0.142978
0.0966828
0.266654
0.131641
0.0984231
0.0902894
0.101437
0.298715
0.141521
0.108215
0.140268
0.0132913
0.139493
0.121744
0.0579361
0.0139607
0.141276
0.136603
0.243594
0.124262
0.0381263
0.166934
0.102647
0.140342
0.0157615
0.141907
0.00178876
0.141762
0.238278
0.129365
0.298021
0.00896254
0.289342
0.123985
0.113777
0.112177
0.040894
0.0404361
0.110245
0.106435
0.140308
0.00772655
0.104907
0.19078
0.143921
0.299814
0.140814
0.113967
0.0396413
0.14198
0.138271
0.140343
0.0482188
0.0794211
0.0415116
0.11696
0.10183
0.216064
0.0357112
0.0690104
0.129814
0.129954
0.134692
0.135476
0.0836436
0.102769
0.0499231
0.133832
0.0769252
0.138995
0.102943
0.141028
0.0891606
0.0845105
0.0332869
0.140025
0.124213
0.127305
0.138958
0.119473
0.145926
0.140837
0.137698
0.141144
0.130304
0.0685501
0.0400315
0.137583
0.139159
0.0831512
0.135501
0.0119104
0.140538
0.180821
0.140021
0.0173222
0.134957
0.0153737
0.146613
0.133023
0.134829
0.0297178
0.2699
0.026011
0.0786418
0.0943896
0.129923
0.27834
0.0863933
0.0144153
0.13814
0.137908
0.283612
0.273793
0.142318
0.140484
0.133856
0.0764418
0.132705
0.12857
0.11316
0.0494018
0.0498111
0.141769
0.141604
0.0883166
0.126525
0.0718451
0.140167
0.140134
0.140294
0.123919
0.119111
0.104409
0.10854
0.139416
0.10171
0.142371
0.00124866
0.112302
0.0798511
0.0957024
0.131475
0.140449
0.140289
0.140336
0.136564
0.138657
0.0350274
0.0258012
0.140368
0.258986
0.113126
0.135075
0.141625
0.105371
0.120463
0.13721
0.0553684
0.117535
0.123728
0.10636
0.0492687
0.140369
0.141306
0.112862
0.13918
0.125545
0.0253337
0.140577
0.0969228
0.123173
0.137029
0.091086
0.107171
0.0886344
0.135326
0.142125
0.119015
0.0374078
0.120067
0.111333
0.0903959
0.126548
0.129779
0.0443437
0.210334
0.212694
0.0322303
0.0311395
0.0840179
0.125631
0.0898856
0.139092
0.133046
0.140465
0.205263
0.257162
0.108447
0.0312413
0.0728001
0.137321
0.138343
0.219116
0.137811
0.143701
0.0830436
0.279334
0.00142214
0.14029
0.0624852
0.142336
0.113794
0.139592
0.0324679
0.109203
0.117495
0.140051
0.254237
0.013854
0.132992
0.0205928
0.127211
0.0245742
0.139756
0.0121447
0.01321
0.0566203
0.126696
0.139407
0.140636
0.126051
0.0561288
0.101845
0.118788
0.053883
0.134807
0.0821974
0.135624
0.136173
0.128931
0.00770825
0.0187624
0.099212
0.11616
0.140183
0.0411756
0.109012
0.14016
0.0192238
0.0978537
0.100842
0.140092
0.139104
0.261443
0.114496
0.14033
0.187185
0.0840317
0.00873168
0.0643422
0.0113434
0.140991
0.117772
0.0139906
0.0708276
0.090186
0.141533
0.0215451
0.131466
0.133409
0.127597
0.140914
0.0668323
0.0132727
0.0882994
0.121235
0.133142
0.0656771
0.249056
0.296052
0.0819674
0.135951
0.132245
0.0926442
0.124349
0.0975766
0.13457
0.0104002
0.105603
0.108168
0.0989562
0.131515
0.064436
0.126849
0.0649615
0.137139
0.141136
0.0205886
0.114159
0.142376
0.0888441
0.0647227
0.131698
0.140119
0.109698
0.143154
0.140191
0.140692
0.093355
0.285033
0.138533
0.140118
0.0853021
0.12921
0.125532
0.235917
0.111556
0.126974
0.095684
0.0687634
0.142928
0.138678
0.132886
0.102908
0.138787
0.106625
0.146226
0.13811
0.297593
0.149593
0.141813
0.111049
0.13132
0.140027
0.132462
0.140463
0.115483
0.140008
0.108757
0.140943
0.139947
0.0486462
0.0455111
0.101328
0.0914312
0.140433
0.129302
0.141708
0.141001
0.134311
0.128217
0.104991
0.132374
0.131096
0.101718
0.105266
0.0559177
0.127676
0.135258
0.140859
0.253945
0.137591
0.133152
0.127688
0.0321311
0.120713
0.121932
0.140366
0.11988
0.12447
0.0992591
0.139901
0.0830426
0.0183761
0.145105
0.139837
0.0738437
0.13389
0.135646
0.126352
0.13929
0.133402
0.131267
0.125652
0.139119
0.139915
0.139816
0.128602
0.139199
0.130693
0.0718371
0.109487
0.113096
0.0631613
0.130758
0.187188
0.140652
0.138593
0.0362294
0.12887
0.142465
0.140184
0.117286
0.140165
0.118148
0.127727
0.0732259
0.105626
0.12295
0.242217
0.14343
0.0935719
0.140373
0.141015
0.12416
0.140114
0.0963956
0.080566
0.141119
0.126656
0.100173
0.114187
0.136232
0.292088
0.140021
0.137148
0.109592
0.102099
0.138257
0.138293
0.133251
0.0791463
0.160335
0.121268
0.120122
0.140616
0.229198
0.108213
0.103956
0.138728
0.135174
0.135857
0.0977444
0.117874
0.14066
0.0577201
0.14003
0.121483
0.0945408
0.141262
0.12946
0.147626
0.0436924
0.109242
0.134545
0.123282
0.112316
0.139944
0.0816884
0.140169
0.097774
0.140125
0.138646
0.0295249
0.258219
0.131256
0.13434
0.131494
0.257024
0.283399
0.138107
0.266733
0.13915
0.113647
0.198233
0.14118
0.129091
0.116125
0.262177
0.135843
0.140333
0.0962363
0.0576311
0.0952309
0.107615
0.0759269
0.141055
0.09247
0.145108
0.140186
0.128923
0.134022
0.137507
0.187565
0.0410066
0.140234
0.136429
0.116713
0.136093
0.0861444
0.119155
0.139827
0.0378454
0.0492037
0.14
0.126291
0.0987468
0.29847
0.0612335
0.00150926
0.131447
0.121243
0.108268
0.0598591
0.147257
0.0924629
0.108102
0.142449
0.0584729
0.130546
0.113932
0.118153
0.133509
0.132926
0.0730456
0.140396
0.134025
0.125392
0.0363725
0.130902
0.0432712
0.140189
0.0801709
0.125841
0.0371521
0.0384367
0.135074
0.125312
0.139878
0.0942711
0.108351
0.062326
0.276453
0.201678
0.2981
0.0667974
0.139029
0.136609
0.0104323
0.0755127
0.00564656
0.067181
0.127669
0.0950228
0.135307
0.119861
0.140188
0.12838
0.137209
0.287895
0.0293358
0.136732
0.0741475
0.144329
0.13711
0.127349
0.0414865
0.0982403
0.143466
0.140067
0.142121
0.120134
0.138118
0.134592
0.228309
0.223687
0.140783
0.0172234
0.138652
0.0638297
0.131757
0.256125
0.118255
0.1299
0.14264
0.0701857
0.0149709
0.142889
0.00764632
0.00348606
0.0734691
0.141527
0.15007
0.154036
0.139833
0.138059
0.137809
0.0736794
0.125616
0.140283
0.116239
0.140003
0.140047
0.0216502
0.183141
0.124799
0.140299
0.0799539
0.141616
0.120198
0.134618
0.0918561
0.0861231
0.105193
0.130164
0.0959875
0.135777
0.125725
0.143732
0.111505
0.125718
0.128983
0.13059
0.0958359
0.129594
0.132821
0.110499
0.095309
0.0833005
0.0133798
0.142646
0.133431
0.134999
0.140107
0.0528901
0.0690935
0.140455
0.0203432
0.130447
0.256601
0.0699794
0.161364
0.103435
0.243958
0.11471
0.0842275
0.140774
0.139482
0.0949293
0.130066
0.0581562
0.0378268
0.139821
0.13817
0.143353
0.238351
0.127818
0.098657
0.0846247
0.0862464
0.138214
0.084477
0.137063
0.0108584
0.116494
0.0314734
0.0815074
0.142658
0.141239
0.294151
0.226563
0.102935
0.0618641
0.137596
0.239322
0.130085
0.0340357
0.0184778
0.241456
0.046157
0.140704
0.05384
0.0688432
0.139345
0.138526
0.00615137
0.137638
0.143824
0.141851
0.0948631
0.137748
0.00131483
0.135918
0.140827
0.132896
0.0795436
0.092849
0.140009
0.0972204
0.125014
0.120428
0.0413756
0.229747
0.140334
0.0657507
0.0947943
0.0877064
0.109351
0.0942378
0.136857
0.284339
0.139545
0.0161241
0.135016
0.289628
0.116996
0.107648
0.140568
0.0135636
0.097658
0.130657
0.0712878
0.0057113
0.121443
0.131589
0.0672099
0.138999
0.135862
0.141498
0.139948
0.118364
0.0812237
0.13883
0.090154
0.0847239
0.136251
0.0244135
0.140198
0.106755
0.094313
0.141798
0.294537
0.136166
0.074353
0.140226
0.0784073
0.245622
0.136695
0.140692
0.140097
0.0862019
0.127844
0.28446
0.134136
0.141083
0.140877
0.13824
0.121536
0.139928
0.114686
0.144583
0.0160877
0.143171
0.141596
0.0149793
0.140193
0.127947
0.134978
0.0232282
0.115526
0.040953
0.100011
0.142739
0.106762
0.114316
0.145512
0.0242555
0.0793361
0.137895
0.106195
0.108904
0.0339639
0.138771
0.0934841
0.0715325
0.132236
0.094863
0.125115
0.141156
0.251006
0.135643
0.087684
0.295173
0.00200923
0.126298
0.141759
0.27834
0.139545
0.0182145
0.133454
0.0813109
0.112462
0.139847
0.141124
0.125567
0.132455
0.140396
0.119494
0.299729
0.146099
0.0792881
0.227912
0.0559418
0.138811
0.0602957
0.134727
0.133901
0.0508427
0.136593
0.140152
0.116816
0.088089
0.140811
0.116608
0.140679
0.11117
0.132497
0.0826203
0.123245
0.108564
0.141051
0.0471878
0.111821
0.0692097
0.134324
0.00254764
0.284129
0.0898075
0.113709
0.135624
0.0567164
0.112739
0.193264
0.0326996
0.0221285
0.140082
0.0847938
0.0185815
0.126558
0.134757
0.279547
0.118366
0.0367813
0.00952594
0.00478118
0.104072
0.13874
0.12952
0.140642
0.141595
0.138779
0.00778199
0.127747
0.098153
0.127818
0.0946583
0.188032
0.0120034
0.138295
0.028084
0.138285
0.298985
0.137185
0.101464
0.0915902
0.139524
0.139623
0.138023
0.139236
0.0156512
0.0832968
0.126319
0.0798337
0.0329053
0.135895
0.136049
0.139952
0.132688
0.0341024
0.0911819
0.130688
0.299412
0.140343
0.137266
0.0864074
0.141777
0.140686
0.147346
0.139757
0.0211652
0.122821
0.12275
0.180747
0.113623
0.25443
0.0182686
0.141525
0.12569
0.0697446
0.139437
0.130742
0.138345
0.10718
0.11176
0.133166
0.271018
0.258975
0.130094
0.100533
0.138751
0.0493418
0.0245789
0.0868887
0.0168685
0.122879
0.0709024
0.00425076
0.140607
0.118934
0.140011
0.185819
0.0695788
0.131222
0.141307
0.105831
0.0693508
0.0623244
0.0696003
0.13806
0.134308
0.1103
0.250075
0.0238722
0.128177
0.00314908
0.14061
0.293353
0.0827151
0.295559
0.094891
0.110545
0.0777364
0.120461
0.140025
0.027917
0.101532
0.0820717
0.129679
0.14069
0.137208
0.140161
0.136691
0.131593
0.0980088
0.119987
0.142213
0.135012
0.131102
0.145657
0.140936
0.128953
0.136856
0.107596
0.0821847
0.0150913
0.0883163
0.14121
0.0915475
0.0524449
0.007233
0.113887
0.098392
0.075074
0.120113
0.140799
0.140638
0.0204006
0.242906
0.126521
0.124797
0.119003
0.142116
0.117373
0.13608
0.139102
0.184501
0.0988722
0.139761
0.00574973
0.297088
0.0815929
0.1377
0.112697
0.141568
0.0588218
0.137344
0.140703
0.140494
0.297436
0.139394
0.0297903
0.120406
0.140125
0.0137666
0.0112897
0.11148
0.141912
0.139901
0.140377
0.139858
0.144295
0.142037
0.0830627
0.0178235
0.096625
0.143466
0.296404
0.0180722
0.121172
0.103583
0.115389
0.137773
0.140578
0.137964
0.0714671
0.0646035
0.0129237
0.258744
0.140791
0.189609
0.098137
0.140423
0.276458
0.140444
0.103155
0.140197
0.246784
0.0638742
0.0844285
0.140788
0.13678
0.131141
0.136742
0.103958
0.140235
0.107135
0.140551
0.12065
0.093508
0.141354
0.139876
0.117195
0.127798
0.0437915
0.108751
0.127063
0.110241
0.230173
0.137255
0.140176
0.0524352
0.141031
0.123914
0.11705
0.138051
0.140962
0.117931
0.12852
0.141376
0.0900417
0.140331
0.137465
0.0119827
0.126136
0.101403
0.0167704
0.139962
0.197883
0.137635
0.139255
0.14325
0.00246815
0.139997
0.125901
0.140063
0.137043
0.159853
0.138654
0.070306
0.136756
0.024009
0.107459
0.139412
0.0216362
0.0428235
0.111871
0.14063
0.0948345
0.287875
0.120984
0.14151
0.105048
0.111589
0.104151
0.139942
0.117268
0.0664636
0.0491494
0.107621
0.142506
0.135909
0.126794
0.0406214
0.054435
0.138548
0.121822
0.125482
0.135913
0.278501
0.138172
0.107116
0.142806
0.139637
0.142129
0.143261
0.0628891
0.13527
0.125216
0.214436
0.103249
0.141187
0.0829505
0.257066
0.0185928
0.277642
0.140042
0.140266
0.058949
0.123169
0.113949
0.135074
0.141713
0.0119556
0.102536
0.140869
0.115782
0.0294963
0.27602
0.140025
0.134877
0.139763
0.0122472
0.0892737
0.156479
0.11759
0.0868829
0.117489
0.111971
0.128109
0.134426
0.0201807
0.0128049
0.155108
0.140117
0.110083
0.11822
0.114531
0.0878071
0.212195
0.140356
0.122434
0.131677
0.123839
0.0917299
0.139509
0.141038
0.126609
0.286443
0.131659
0.139995
0.160736
0.199628
0.128786
0.138748
0.143414
0.185225
0.0910172
0.120435
0.0952244
0.142428
0.139337
0.0942454
0.0159424
0.0839849
0.141373
0.134515
0.0596473
0.135457
0.139643
0.128923
0.130918
0.139753
0.125161
0.140411
0.129789
0.052866
0.220662
0.0117161
0.00928667
0.273541
0.122612
0.0438427
0.0798956
0.143551
0.130441
0.141076
0.140461
0.288346
0.139338
0.0337077
0.142416
0.20348
0.140681
0.126036
0.132342
0.113245
0.110147
0.135682
0.128174
0.0764655
0.102859
0.136644
0.10852
0.0998572
0.141963
0.128569
0.147633
0.13446
0.0287368
0.139978
0.13737
0.0851805
0.119593
0.0108838
0.0726663
0.134467
0.0359629
0.141354
0.143563
0.142106
0.0667765
0.0555181
0.14008
0.130186
0.0176465
0.0956311
0.13386
0.145943
0.112794
0.0671456
0.237594
0.112809
0.00726454
0.28673
0.113165
0.162235
0.115662
0.124434
0.140201
0.139499
0.227495
0.103405
0.140602
0.0602525
0.0574547
0.0712448
0.142756
0.153552
0.123375
0.271851
0.0935634
0.140692
0.138354
0.0210681
0.048606
0.139199
0.127871
0.0650529
0.0862481
0.130826
0.1324
0.140177
0.0919796
0.140761
0.138903
0.125532
0.140883
0.131278
0.136223
0.0203296
0.0342447
0.126224
0.123847
0.140232
0.138448
0.00480952
0.140959
0.0286814
0.29654
0.138777
0.137648
0.140728
0.139233
0.091048
0.136632
0.0160541
0.0606206
0.045552
0.140483
0.117311
0.0341694
0.140995
0.130678
0.137315
0.119264
0.141574
0.13591
0.042923
0.120036
0.0409238
0.153348
0.0586757
0.104578
0.140154
0.018149
0.14012
0.141146
0.134022
0.120435
0.106807
0.0457634
0.138337
0.0775195
0.111673
0.116504
0.031201
0.127711
0.228645
0.050382
0.0545762
0.112386
0.114349
0.0760766
0.140887
0.0400565
0.127861
0.12235
0.0129242
0.140741
0.00958357
0.140461
0.140786
0.139241
0.12945
0.133412
0.135704
0.133865
0.139929
0.135125
0.120709
0.139082
0.0975741
0.114228
0.107933
0.0736385
0.277946
0.0673953
0.140601
0.137882
0.138557
0.132863
0.116204
0.0506438
0.137863
0.0230195
0.14081
0.140853
0.116543
0.138955
0.138926
0.19016
0.0877114
0.140137
0.0821543
0.117598
0.109488
0.0666027
0.171188
0.00630158
0.0498175
0.106272
0.133227
0.118009
0.138209
0.137962
0.121198
0.0113836
0.138488
0.124064
0.0284222
0.194515
0.107139
0.199394
0.17891
0.138381
0.119583
0.140566
0.133562
0.0116624
0.0434349
0.044602
0.0613214
0.140677
0.141662
0.141085
0.0145924
0.0207441
0.139093
0.0742055
0.140773
0.0913053
0.282052
0.124874
0.137404
0.161746
0.139707
0.124256
0.0753472
0.141202
0.0732973
0.0885514
0.0957619
0.0575921
0.107639
0.116856
0.140127
0.0490789
0.085422
0.139934
0.130514
0.137339
0.133552
0.139256
0.198696
0.084452
0.00913558
0.143115
0.0660581
0.0246508
0.138389
0.141235
0.127925
0.135125
0.0228842
0.0807478
0.0265427
0.0176596
0.223314
0.110007
0.0788609
0.137341
0.0159543
0.133062
0.013522
0.141667
0.00302494
0.0859961
0.0665277
0.14279
0.140052
0.098704
0.00787424
0.0972232
0.140727
0.138987
0.124243
0.16168
0.14067
0.129269
0.0887509
0.13892
0.0635441
0.120525
0.134375
0.121831
0.108956
0.259893
0.14082
0.118935
0.11718
0.138503
0.136018
0.14202
0.134696
0.140651
0.121282
0.142093
0.0428681
0.135194
0.135761
0.0138112
0.140207
0.139735
0.264772
0.134126
0.124539
0.14184
0.082716
0.0380943
0.166527
0.115338
0.0619692
0.0688137
0.140332
0.0274887
0.140972
0.116398
0.299855
0.142878
0.110852
0.138537
0.149481
0.125915
0.0439919
0.214755
0.0850485
0.0729623
0.118645
0.0910328
0.130014
0.103674
0.0977175
0.125167
0.020001
0.117243
0.12628
0.129431
0.10572
0.120198
0.140902
0.122078
0.0125472
0.164034
0.0714491
0.115114
0.107209
0.138893
0.109676
0.239309
0.135022
0.143317
0.0137192
0.130482
0.104629
0.101799
0.0612175
0.140834
0.120178
0.118221
0.0417416
0.140088
0.123032
0.135339
0.0973632
0.219342
0.138084
0.0369093
0.118804
0.292705
0.215996
0.0595934
0.132856
0.136861
0.113868
0.107971
0.140519
0.141321
0.0886489
0.119202
0.298182
0.137534
0.142191
0.088131
0.294893
0.129373
0.0110592
0.142874
0.13023
0.0709365
0.129749
0.0159894
0.13322
0.0938685
0.0209255
0.137671
0.139452
0.0513392
0.136803
0.14352
0.140056
0.110083
0.128615
0.142373
0.141401
0.0947042
0.142556
0.136135
0.290207
0.117699
0.140638
0.13953
0.128348
0.144043
0.141142
0.143721
0.104434
0.113734
0.121805
0.117231
0.0434911
0.0828303
0.14068
0.110211
0.134004
0.140231
0.153444
0.0946523
0.043908
0.0916082
0.128363
0.230416
0.102546
0.143043
0.0952182
0.0170851
0.137869
0.136519
0.111089
0.0981291
0.0129722
0.051439
0.00431378
0.0538104
0.141132
0.137078
0.140164
0.0559977
0.134675
0.0532312
0.136844
0.134111
0.136733
0.143001
0.138465
0.137462
0.135647
0.274315
0.14028
0.125994
0.0227085
0.142682
0.13808
0.236926
0.103179
0.14244
0.102467
0.140173
0.0960666
0.136838
0.0803235
0.140156
0.0253475
0.127067
0.136886
0.254752
0.141835
0.282173
0.28851
0.09885
0.102062
0.112173
0.133634
0.113251
0.140444
0.122055
0.114727
0.126676
0.140263
0.13056
0.14001
0.0721486
0.0331342
0.0888844
0.243239
0.140725
0.0834319
0.140183
0.133019
0.00879246
0.289139
0.0977788
0.0897632
0.0989751
0.139109
0.124735
0.136023
0.123164
0.132383
0.110431
0.138195
0.140349
0.118907
0.165978
0.143782
0.127836
0.120573
0.131472
0.0462437
0.134558
0.181253
0.114918
0.115031
0.0206725
0.129173
0.0706244
0.140839
0.141701
0.0239576
0.115057
0.124678
0.144486
0.0415048
0.13585
0.139057
0.131911
0.113448
0.0924699
0.142245
0.0744931
0.143637
0.00955333
0.0167119
0.068907
0.0699097
0.14044
0.133282
0.142833
0.125596
0.00888388
0.139506
0.141899
0.130317
0.137711
0.113783
0.137192
0.0354536
0.134913
0.140331
0.291501
0.286369
0.124672
0.140302
0.107098
0.140427
0.131876
0.129714
0.0806252
0.138217
0.141319
0.139386
0.114723
0.137795
0.0207656
0.0570727
0.0856617
0.14034
0.141261
0.054113
0.11876
0.0956036
0.130659
0.233923
0.0205734
0.0631762
0.130859
0.116819
0.140567
0.0300769
0.136893
0.132064
0.286868
0.0780965
0.126413
0.109189
0.101333
0.0595499
0.0751182
0.141781
0.0078816
0.109861
0.299838
0.195252
0.139897
0.108328
0.140779
0.138085
0.29128
0.0291996
0.257746
0.141611
0.112448
0.138672
0.0432317
0.100805
0.136171
0.00815727
0.143836
0.136461
0.272742
0.141271
0.0210294
0.0933968
0.0389628
0.137562
0.141414
0.130018
0.0107631
0.239487
0.00678075
0.117231
0.101782
0.12837
0.291424
0.115638
0.139453
0.110095
0.136904
0.135942
0.138983
0.0197527
0.0824554
0.14195
0.13861
0.11642
0.140234
0.128099
0.141833
0.107749
0.138426
0.140627
0.123559
0.026144
0.100797
0.13958
0.144023
0.108806
0.0998778
0.143746
0.105389
0.104621
0.0319976
0.130657
0.0414274
0.0299516
0.0635626
0.124605
0.0892096
0.273553
0.0914708
0.0858965
0.0620449
0.011306
0.122236
0.137965
0.0772349
0.099689
0.129174
0.0859275
0.139575
0.137342
0.134662
0.113395
0.0385534
0.140565
0.135909
0.13842
0.140728
0.144605
0.141332
0.0425143
0.0812125
0.133792
0.132088
0.106328
0.13768
0.122754
0.0135467
0.118993
0.140233
0.135688
0.0928725
0.138782
0.175127
0.0131684
0.116944
0.2944
0.139821
0.0437886
0.139076
0.122234
0.207488
0.0103485
0.118501
0.0437964
0.297988
0.140834
0.101716
0.111539
0.132386
0.128809
0.131084
0.0140449
0.103894
0.140842
0.140229
0.140204
0.135916
0.0883249
0.00989668
0.131494
0.134743
0.136996
0.140512
0.145079
0.0351439
0.0482517
0.109455
0.239092
0.138416
0.0787494
0.0617186
0.277422
0.279684
0.0303991
0.0291714
0.142656
0.137231
0.118485
0.140058
0.297089
0.137269
0.00894865
0.0497599
0.107491
0.0364607
0.135161
0.140357
0.073692
0.141752
0.120548
0.0388269
0.111183
0.139199
0.132055
0.205587
0.13483
0.0828491
0.124534
0.135945
0.139941
0.123224
0.0500347
0.125182
0.141725
0.141054
0.110562
0.14052
0.287637
0.119933
0.0880923
0.014952
0.13856
0.121276
0.105771
0.139883
0.12755
0.0989467
0.123789
0.0230913
0.12407
0.120061
0.135203
0.136303
0.133191
0.103909
0.257669
0.182778
0.138083
0.0395731
0.121387
0.24981
0.13788
0.129649
0.107064
0.123926
0.0892326
0.118499
0.0921434
0.135351
0.0883461
0.134579
0.139208
0.0230559
0.104997
0.132007
0.0120214
0.140821
0.131253
0.137247
0.113161
0.0636075
0.1385
0.113755
0.132869
0.135135
0.145224
0.101777
0.105481
0.114581
0.140436
0.13462
0.0646106
0.0274767
0.125403
0.112017
0.0367992
0.138161
0.155715
0.13409
0.0353574
0.0388188
0.13417
0.130439
0.276292
0.0664158
0.140243
0.140017
0.121715
0.126441
0.207755
0.140544
0.142266
0.137588
0.13819
0.0731542
0.250304
0.138176
0.137183
0.111861
0.139596
0.0932096
0.300075
0.0642378
0.133577
0.0229932
0.0177324
0.143451
0.0949082
0.140251
0.204616
0.0768945
0.100773
0.139792
0.140639
0.133118
0.0520368
0.1313
0.0212608
0.0424755
0.118798
0.012576
0.250331
0.141009
0.113561
0.140147
0.0343816
0.115787
0.143358
0.140455
0.198014
0.140697
0.0453222
0.131642
0.109134
0.0904115
0.136707
0.130874
0.0357103
0.0620173
0.0677929
0.0765563
0.0984764
0.0822195
0.231573
0.140066
0.125905
0.13491
0.122068
0.111967
0.135837
0.129156
0.132952
0.127064
0.142035
0.04949
0.0777981
0.138253
0.143038
0.140086
0.13074
0.101401
0.137128
0.221422
0.107496
0.00253528
0.1373
0.137547
0.104098
0.0920784
0.133699
0.115638
0.0340792
0.0858049
0.140258
0.134807
0.142379
0.144019
0.102516
0.135778
0.0672751
0.132013
0.132141
0.0603207
0.0772357
0.138237
0.142824
0.0668036
0.122942
0.0406824
0.140283
0.0390376
0.110383
0.286007
0.139847
0.0530763
0.140978
0.107432
0.0296217
0.111924
0.285508
0.14193
0.0108472
0.130782
0.133673
0.139338
0.120691
0.14202
0.113829
0.113357
0.10685
0.120957
0.114119
0.0657189
0.137578
0.112819
0.136198
0.0584693
0.0935408
0.138104
0.170698
0.104776
0.140481
0.140861
0.0126449
0.0838833
0.133279
0.0586797
0.11008
0.141994
0.137451
0.129865
0.0714865
0.141505
0.0720971
0.0606563
0.024457
0.177127
0.141296
0.0753421
0.0694429
0.0523521
0.128651
0.0324356
0.102633
0.137757
0.135867
0.140201
0.13278
0.0949056
0.0754685
0.0662492
0.1361
0.0767162
0.20177
0.0626931
0.142489
0.0875888
0.0997831
0.134176
0.140354
0.136473
0.266005
0.138967
0.139357
0.127368
0.138153
0.0174712
0.123105
0.115358
0.0914531
0.133495
0.125725
0.115794
0.132259
0.290372
0.105878
0.12397
0.121184
0.299269
0.130025
0.0695178
0.282516
0.129119
0.194914
0.292579
0.210202
0.141274
0.23403
0.141544
0.138049
0.120441
0.114378
0.139983
0.140239
0.299465
0.129324
0.140301
0.137931
0.140357
0.0282758
0.122211
0.136873
0.0904333
0.121273
0.13405
0.141189
0.134598
0.140501
0.0907072
0.140039
0.270283
0.140212
0.140035
0.0244867
0.0202051
0.140103
0.130196
0.140197
0.101764
0.144381
0.0365275
0.135998
0.141672
0.140404
0.142131
0.0406887
0.131555
0.119043
0.138723
0.153116
0.140023
0.0646362
0.144308
0.019859
0.0431589
0.168698
0.212517
0.111781
0.00560602
0.140608
0.112757
0.0949135
0.125641
0.141191
0.139759
0.138951
0.0599932
0.29813
0.12007
0.129557
0.24587
0.138426
0.138637
0.139889
0.129915
0.0239625
0.0373539
0.122465
0.006261
0.102736
0.128737
0.120443
0.139746
0.143088
0.139802
0.127889
0.0596496
0.0322908
0.139023
0.140073
0.035453
0.154589
0.138871
0.1416
0.246634
0.135377
0.137132
0.074981
0.132964
0.142027
0.16527
0.121199
0.0608879
0.12555
0.120287
0.0162262
0.0481099
0.0655958
0.0216535
0.13844
0.138897
0.0426158
0.0122661
0.0772948
0.197568
0.106043
0.129822
0.119442
0.124807
0.00958753
0.144055
0.134039
0.0250987
0.140122
0.123922
0.141222
0.265688
0.25517
0.0417275
0.140945
0.131451
0.108144
0.0191688
0.204456
0.134855
0.142578
0.141769
0.0570119
0.135988
0.122231
0.13771
0.0622424
0.0640098
0.108616
0.177671
0.138646
0.140412
0.13726
0.140337
0.078788
0.135537
0.131176
0.0731545
0.125572
0.114008
0.00620369
0.143331
0.139066
0.121747
0.0341562
0.139219
0.140577
0.00167673
0.127058
0.0158534
0.0896635
0.0861521
0.111038
0.139926
0.128765
0.133885
0.133894
0.110921
0.133124
0.0665849
0.115413
0.105076
0.140143
0.139208
0.139386
0.133701
0.119112
0.113869
0.104056
0.118595
0.0200364
0.00433007
0.131914
0.121785
0.0817253
0.107148
0.0292919
0.0296752
0.1412
0.0388664
0.0783922
0.105084
0.141667
0.140043
0.199397
0.139793
0.00796697
0.0414705
0.0497035
0.277693
0.0999144
0.136039
0.140084
0.280599
0.0886017
0.139962
0.139814
0.140182
0.141489
0.140094
0.133455
0.295142
0.0853064
0.0448013
0.123849
0.116261
0.129244
0.14091
0.103385
0.140167
0.216466
0.139858
0.043604
0.201847
0.278549
0.137885
0.107423
0.187601
0.14194
0.165795
0.0949504
0.121473
0.139492
0.123717
0.145878
0.00938547
0.140483
0.103217
0.0620096
0.107857
0.141182
0.139939
0.132107
0.104645
0.128853
0.140752
0.13813
0.101747
0.137085
0.219926
0.100723
0.119933
0.113999
0.126592
0.193405
0.279008
0.122665
0.141261
0.122565
0.23487
0.135627
0.0510444
0.0463416
0.100128
0.100624
0.12619
0.127303
0.0952284
0.0800018
0.0240924
0.0727352
0.129402
0.111604
0.0871106
0.140497
0.142584
0.0630856
0.118393
0.0957441
0.107902
0.13161
0.0639618
0.11843
0.0623258
0.140853
0.140169
0.129857
0.0114564
0.14322
0.123283
0.140619
0.12045
0.114711
0.139999
0.19696
0.257624
0.191138
0.139963
0.122803
0.130608
0.137225
0.140097
0.137956
0.123002
0.139975
0.057977
0.128159
0.117152
0.129357
0.125626
0.140042
0.00195022
0.119038
0.140317
0.140305
0.0475468
0.13972
0.0989195
0.140949
0.0688458
0.227109
0.0473206
0.0958125
0.138272
0.23216
0.04607
0.135366
0.137216
0.183672
0.140198
0.0976187
0.0818933
0.045739
0.101348
0.141743
0.140115
0.135377
0.125449
0.24582
0.140239
0.211963
0.115524
0.140122
0.0299946
0.14057
0.102167
0.140567
0.112699
0.0302001
0.12736
0.136866
0.11504
0.0956532
0.13826
0.0317905
0.259976
0.0335794
0.144699
0.137225
0.0844383
0.139759