/*--------------------------------*- C++ -*----------------------------------*\
  =========                 |
  \\      /  F ield         | OpenFOAM: The Open Source CFD Toolbox
   \\    /   O peration     | Website:  https://openfoam.org
    \\  /    A nd           | Version:  7
     \\/     M anipulation  |
\*---------------------------------------------------------------------------*/
FoamFile
{
    version     2.0;
    format      ascii;
    class       volScalarField;
    location    "350";
    object      p;
}
// * * * * * * * * * * * * * * * * * * * * * * * * * * * * * * * * * * * * * //

dimensions      [0 2 -2 0 0 0 0];

internalField   nonuniform List<scalar> 
11372
(
-21.6535
-31.5198
31.166
-33.46
-0.357506
-31.8181
-9.68536
-24.6657
-8.77245
28.3828
-7.19882
37.9844
-19.8183
-0.605922
-1.11778
-33.2341
-14.4607
-11.5532
11.5493
14.2346
-33.6722
-1.75596
-5.15641
-34.7698
-8.76881
0.527142
-33.8533
4.35213
12.6169
13.0489
12.8883
11.6197
-2.05197
-0.442415
56.2332
-0.885688
-3.62456
-1.92974
-12.3268
-11.173
-26.1758
12.3358
-2.14606
43.6486
6.83668
-18.989
-5.23136
-26.4918
-32.8566
-2.61502
-36.0958
-8.04451
31.468
-20.7598
10.8665
-6.94141
43.2665
-32.2491
-2.55617
36.819
-22.146
-19.4341
-0.508668
-33.4176
-8.32303
-1.14601
-17.3116
-33.2903
25.048
-32.8514
-0.905282
-5.67933
-3.49059
-7.19362
-21.057
11.8298
-33.5396
1.87715
11.4845
-39.5869
-30.9469
41.3005
62.7331
15.1645
-75.1402
-41.2687
0.777859
-6.3954
21.2636
-37.9394
-3.10461
8.44846
-32.8338
11.5201
4.20687
-3.55533
-16.2209
-15.5668
-34.3871
0.839599
9.17225
26.6106
11.2389
-2.61942
13.8429
59.5522
-33.1889
12.1206
3.14673
19.824
4.83507
22.7859
-2.823
11.9574
-27.2874
8.24144
-26.8893
4.83276
-0.926239
-26.4051
-28.7988
-24.5188
-1.71499
6.21292
34.422
13.497
-9.24414
-19.6714
-2.8282
-31.1351
-15.2332
-10.2753
-34.0823
-20.3691
-16.4962
-4.07673
-10.0366
-13.7245
54.5348
11.8728
-2.66768
11.6909
-33.361
11.9061
-0.215964
-21.6554
-33.7453
13.5395
12.7612
-31.21
2.25535
-24.2384
-10.9561
-32.0503
8.24705
-0.863826
-7.87014
-5.72716
-21.3494
14.4002
-4.70109
-2.82932
-27.3001
11.6975
-33.8503
-10.0385
-20.9304
-33.5889
-3.02251
-2.26701
-34.2102
-1.92253
-31.6487
-22.5146
-9.46263
-43.8262
10.4521
-31.7276
-49.0953
10.721
13.4345
15.0049
-42.3694
-25.5523
-33.4228
-29.6668
29.558
-31.619
26.7985
-33.0557
-0.571584
12.2349
27.7229
-11.4169
-17.515
-11.4407
-33.217
13.1064
-32.4484
-12.2462
12.9543
19.2825
16.4232
-6.37252
4.33564
-6.30561
2.22739
-8.28082
-8.31712
27.4391
-37.0597
-6.51339
-0.768087
14.073
12.6103
-23.5216
12.6544
14.6556
-5.97902
-33.2565
-27.906
14.0942
60.4676
-31.2163
12.2633
-4.1149
-33.6822
-1.61556
11.9605
6.82689
10.4516
10.3531
-19.0458
-0.410272
-31.462
-32.315
-26.5904
-0.578673
-23.8953
-8.49199
11.5685
-42.6465
11.4161
5.00207
15.9534
3.55043
13.5352
-17.7042
8.9742
-44.9545
3.40235
-0.73261
-84.1925
-1.53988
-34.1716
16.7331
-32.3902
6.76153
18.6655
8.45841
-24.2671
12.0559
-11.5615
13.421
36.0546
-12.8803
-4.91287
-31.6998
56.5742
-11.8323
65.3071
-12.9718
5.93568
-15.122
-11.8789
-33.5115
9.28697
0.960711
7.97166
0.143874
-2.52616
10.109
15.2662
8.25575
-30.1175
-0.261692
-33.0836
-34.2587
-1.62979
-12.1325
-33.8056
12.1033
-33.798
2.33563
-33.8519
7.33924
-33.4464
3.1483
-2.32846
-32.0207
11.2564
-25.1032
57.4079
-1.3194
-2.45777
-11.2762
44.2148
-2.2519
10.8996
-6.76598
13.8423
11.3426
-23.9791
-53.1288
5.02488
7.97105
-33.837
-13.8587
-14.6407
-30.5266
3.8977
-32.8273
-2.44369
14.3206
13.1297
-30.5797
-22.8794
22.7121
-6.19851
-9.39638
-7.14459
13.0294
25.6739
-25.1192
-13.6987
-20.0016
-1.63619
-33.93
5.01749
-8.05902
-33.9209
-18.511
6.47589
-5.03204
-0.582961
-1.24844
-3.20226
-7.24713
35.3674
11.5676
35.103
-16.3727
24.4349
28.4162
13.7375
-27.1266
42.991
22.7338
-3.11779
12.4063
-2.57032
-10.8179
15.0803
0.183271
4.85118
-33.6353
-17.211
47.0398
26.6207
14.5634
13.7739
-7.59244
-32.2796
-33.758
2.96832
28.7594
42.2594
12.5044
-29.2294
-31.301
0.660591
13.4871
-3.74024
-11.7639
9.98655
18.2303
-33.8698
3.6557
-20.0308
-5.45142
53.1343
-33.3293
7.42579
-7.96617
3.61198
-8.00799
-0.958642
-76.0438
-4.88654
-22.6278
19.8883
-3.22817
-1.32918
-33.5211
-4.90449
-3.01094
57.6329
-30.241
-8.27076
-4.97516
10.6196
0.146857
-3.52476
-33.8429
-32.9434
-33.6228
-30.594
14.0145
-0.394059
-4.6394
-7.20377
-2.16268
6.5693
-24.7619
11.6141
10.6624
-33.5772
-2.99636
21.0038
11.2384
-1.63065
0.552641
0.185327
-33.7517
-22.2605
5.41318
-12.7824
13.9825
-33.6338
-9.19039
-18.3388
-2.46766
11.0263
-7.62609
2.74838
-33.4522
-33.5883
12.6514
-33.4526
46.6223
-0.500741
-29.1765
-7.83355
22.7798
-18.1234
-28.3427
-15.8071
-27.4699
12.7243
-0.669507
1.32431
37.8574
-28.5915
-4.98931
-32.8854
27.2782
-7.59653
-24.954
-8.8717
20.1936
-5.19686
28.1704
13.6082
-22.3676
50.7871
22.0517
-17.5872
-1.16993
-2.27072
-20.3339
14.0943
59.4896
-34.0328
6.51514
0.486435
-33.6573
-2.30985
-18.558
-1.58382
3.8026
-31.6327
-0.279803
6.17486
-1.85015
-12.2543
21.3102
27.2618
-1.39925
13.3928
12.0155
9.89404
-29.5185
-32.9256
-33.6424
18.5129
-5.29813
65.0654
6.86001
-31.9204
-1.24942
-27.697
-17.0449
-13.6187
11.5823
10.8086
10.26
23.1324
14.8916
25.6578
-8.57548
-17.6179
3.78675
-4.65638
-4.20253
19.9013
6.57388
-33.598
0.185794
-31.9558
-10.2106
2.27943
-2.77309
2.68685
-13.1118
-2.67323
-3.97414
5.28522
-0.947615
-18.3616
12.7509
-1.42735
-33.4728
10.879
18.4032
13.5622
-8.80607
16.9273
-1.65042
-37.7846
-33.4835
2.64808
0.944587
-21.0629
12.5014
3.94468
6.27571
45.3761
11.2697
-4.23688
-26.3521
11.631
3.64754
-1.67212
-20.8058
0.833318
-7.61311
35.314
-31.4944
-16.3321
-6.61366
-0.172686
-2.90933
4.20175
-48.2194
11.1413
20.2176
-23.7904
-33.8666
-2.68436
6.91396
-31.2052
-9.04911
-29.7241
-34.2726
-11.2893
1.90704
2.82619
-3.00965
-36.1572
-1.07358
-3.5094
-7.58207
-2.27269
-37.4891
-20.4516
-7.20393
-12.0255
-5.25736
-28.3784
-32.6697
-15.4079
-14.0043
4.99474
-37.6745
11.7924
-7.92681
-1.42657
-5.57143
1.8071
-22.9199
-32.7728
-1.90459
13.1913
8.77809
-15.1992
-13.4075
-24.1283
2.13455
-16.5743
-32.9793
-28.6033
-23.263
26.2417
26.3915
12.7908
-6.74719
-22.1951
-17.7649
-28.709
3.35758
-30.6101
12.3335
-13.5368
0.579532
-20.0873
-17.3326
-32.481
11.2169
2.0519
-6.90562
11.1602
4.50578
-0.172944
1.61364
14.0369
1.65585
-7.63569
-31.0919
-30.0176
-2.24082
-1.81978
48.9788
-6.24963
31.4695
1.70492
-11.0678
10.115
-35.8575
15.0075
48.8358
-2.34814
-0.115013
18.1736
-53.6401
-4.90351
-33.4583
52.2263
45.7595
-6.14824
-23.7752
-25.5849
22.8471
13.3095
12.6168
0.529354
-18.562
-2.24023
6.98744
15.4507
-22.0289
11.8001
-2.39951
-33.9316
-32.0431
-25.5141
-0.526539
-0.246853
-5.50086
10.5989
-14.9204
10.3244
11.0896
6.24247
-11.2466
14.1736
-10.6062
17.175
11.9823
-15.6592
-2.13874
-33.989
-14.6989
-29.5873
-4.56401
-8.19
7.77193
5.66957
7.51535
2.34278
13.054
-31.3502
-32.0882
8.65649
-29.4136
15.2624
16.7078
-1.62551
-2.28895
13.0234
-5.58951
-25.4642
-7.21196
32.8909
-11.1273
-27.8568
5.27985
1.22422
-0.91843
-5.07976
26.9984
-35.0472
4.71505
-10.6724
-6.53308
-2.71292
-23.92
28.4164
-12.3493
-3.76582
-1.47575
3.53302
-53.1633
-11.1112
-15.9507
-19.7952
29.1179
25.8274
-32.6051
-30.2231
-33.1005
-31.6759
-37.8073
-14.8138
31.8109
-23.2033
12.5697
-6.42977
7.77219
-32.6437
-0.597968
-33.9352
-32.507
-27.7992
13.2955
-5.30227
-2.58751
13.8818
-2.01845
-28.029
0.227495
-34.1502
8.89058
-22.2372
-2.84325
9.40068
11.7725
36.6127
-16.2321
11.367
10.9649
-30.8672
-77.7256
20.4811
-32.9475
1.96053
-32.4909
11.6552
-60.3342
44.5925
58.7751
25.6272
-4.53658
6.29165
2.63181
-35.6782
-33.9046
-12.232
58.1437
-3.53319
-7.09704
16.9724
-0.636871
-2.53226
-33.5782
-37.9877
-3.57653
14.2186
8.77237
-27.7858
-34.2531
4.24333
-32.9807
-0.800822
3.42725
6.45585
-3.92631
-15.5845
39.404
-2.30638
-27.5678
-17.5387
-35.0349
4.42265
-30.95
1.07419
36.6473
-31.609
54.6746
-18.4754
-1.45985
-33.0611
17.6487
14.4506
27.8546
2.54418
-33.6322
-80.3596
-22.7687
-3.38367
12.398
-33.5971
-30.8719
-16.7012
-31.7002
0.484215
21.3237
-23.0987
30.369
-16.337
7.2788
-69.209
-18.1191
-15.8452
11.6824
16.56
-33.6354
-1.31628
41.7995
13.6501
2.50506
-30.9999
-1.54342
-1.96196
-20.1137
-37.5885
-6.42654
9.48161
41.3507
-1.18995
10.003
6.17241
-3.58601
-17.642
12.7204
8.99194
-24.377
27.3444
20.6827
-32.091
-14.4781
-6.70499
-17.7063
-18.9251
-1.91896
4.36077
-4.77284
38.4814
4.85855
-3.67123
-1.34227
-0.121307
-14.3181
-1.59421
-0.629625
-8.88286
-18.6592
6.17316
10.4295
5.73419
27.4813
11.2194
-2.69885
3.20814
11.6035
-30.3039
-26.2062
-1.47805
-2.94927
1.49101
-33.9959
-0.79079
2.87788
19.1721
25.0948
-16.795
7.02958
4.00203
-0.70905
-14.7363
-18.9244
17.8702
-6.0938
2.88254
-30.669
7.40956
-33.41
-8.33976
-33.4595
23.2149
-0.596565
5.7433
6.29707
-8.81718
23.7995
11.59
27.3012
-33.6924
-0.0424563
11.6229
-25.968
15.208
8.10292
-5.27298
10.8378
20.9454
-2.30727
-33.2776
8.84717
-3.77017
10.182
-7.12704
6.80878
4.16349
-24.2781
1.07335
-1.85564
-22.8865
0.767836
-33.2626
5.95654
5.62885
-54.9516
-6.33902
-0.868673
9.64198
18.9494
10.6944
-3.63904
-9.18324
43.4365
-15.2225
-3.67891
-7.11531
-2.3052
-22.0666
2.40829
-0.078928
3.31818
1.12184
20.5172
-32.916
-0.271771
25.8627
48.6111
-14.5307
16.2412
-18.6503
11.3933
13.2983
23.4212
-15.2658
13.3211
13.5162
-5.88376
15.9765
-31.177
4.5836
37.1825
5.75521
-32.5164
-15.7189
-18.8593
12.8343
-3.72424
-1.67009
-16.9695
-0.874007
5.40141
-33.3689
-1.0525
-4.26803
-33.8562
1.35998
-6.15571
-0.150308
-27.3351
5.24002
18.4309
-8.69268
-0.599455
11.1905
-27.5141
7.49084
-3.93777
10.675
2.26733
61.2855
-24.2401
-4.69202
18.6029
13.351
-25.2946
1.17898
10.6945
-26.1393
-4.52856
24.6302
-0.611382
2.08792
17.2209
-2.14124
-13.478
4.91341
3.15286
-3.0384
-27.4948
-12.1098
-17.1481
-28.7879
2.86316
-15.0732
-33.5455
9.82372
-8.63897
13.044
14.2771
-0.325055
-27.556
9.72467
14.6243
-33.3125
-5.6506
-25.1062
-12.9076
11.6151
-32.618
-35.0685
11.2691
13.378
-20.9368
-11.5697
-33.6534
-34.5883
-6.07889
-12.1661
-15.6046
34.8186
-2.44999
-13.5378
-0.998434
-2.35626
-22.7728
20.7454
-7.70941
-12.0316
-6.27751
-0.778409
3.16402
8.6155
-6.61677
-34.0902
-36.7481
-1.23393
-31.6961
9.02113
54.7158
1.37306
-28.3437
-31.7512
-6.99415
8.5526
11.5812
48.1301
10.3866
16.1626
-26.6553
-21.0759
-11.8408
57.125
12.6619
14.1369
-34.1834
-29.7809
-34.1255
-32.3139
-4.49921
-19.9056
17.7583
-4.84556
-2.05646
26.7365
2.48447
1.21065
-29.7705
15.2146
-12.1379
-0.73634
14.7865
10.331
-29.6929
-2.89705
-2.18156
10.0185
-1.6016
-11.5321
-4.94956
-6.6407
-32.2979
-32.7459
1.30765
-52.6057
12.6791
56.7167
9.40287
-30.155
-12.7918
19.1274
-2.17392
8.81358
-51.3425
-1.88019
-30.869
63.8175
55.9515
0.105718
-33.883
-34.3802
7.61494
0.692166
-0.570197
55.9677
-10.3961
9.85456
-0.321459
11.2431
11.2024
64.0203
-33.9463
-5.92839
9.092
-4.18337
0.252596
-1.07294
-32.0052
-11.5794
-8.79743
28.1469
6.70743
-9.70977
-6.49708
19.813
-1.71557
21.5285
-4.07177
10.0873
-0.560881
-13.7044
25.705
20.5339
-5.92403
-17.9745
-18.9151
-30.7518
-1.01496
19.9636
-1.19274
-2.51122
-32.9514
-32.5517
6.11692
-33.3757
-7.29298
-11.0549
-20.1195
-2.66846
-16.7981
-28.3883
-10.5343
44.4545
4.12881
11.8048
44.1871
-5.84888
32.0797
-33.0577
-4.29522
12.0383
-1.80914
-31.5495
-9.28634
44.3864
15.8205
-33.1583
13.468
-22.2819
15.0162
-33.4239
-4.07395
-32.6917
35.8698
-0.877628
1.0891
-17.4359
0.0565419
-10.1129
-24.4999
-2.5922
0.634528
19.9288
-20.7888
-33.1701
-31.3205
-44.5409
5.61204
-24.2429
30.5449
11.9136
5.79147
-32.4833
14.1553
-1.77005
-1.37693
-15.9593
-0.804293
-33.724
3.81229
4.63001
-7.07881
-27.5381
-18.5404
6.85131
-6.20045
-10.2502
-11.8751
-32.1617
-31.7977
4.02794
-21.2228
-22.0251
-24.1914
43.8089
-22.6151
13.0756
-18.7554
12.1698
-31.9092
5.0052
-3.97943
6.58722
-4.77766
6.90604
-16.9199
-32.9286
22.8206
-28.942
-33.3963
28.0682
2.24618
-23.3349
12.4573
-5.90226
0.270816
9.84954
-33.8683
-23.0789
11.533
-34.0657
-20.3262
16.1754
-32.9187
9.33474
-2.91412
-8.43088
-2.88214
-12.2558
16.2921
-23.2006
10.5127
-23.0471
-29.0164
12.961
3.17389
9.31305
-14.7704
24.3508
-0.814979
-6.57814
2.49895
3.59206
-2.00072
-11.9246
11.5572
17.201
-1.55739
-76.4151
-2.18852
-0.409843
-66.1442
3.17764
-9.13401
1.25964
-31.4267
-33.8113
-34.9078
-11.3149
-2.82597
-16.959
37.1785
-1.75411
-31.6961
-23.8392
-0.178035
-17.779
-12.9066
42.6017
12.9616
-2.65112
-33.9488
3.01307
-17.53
-0.252758
1.35103
-30.3834
17.2059
50.4944
-6.22388
-34.4825
-6.49423
-3.42038
-25.7331
11.9797
-30.8894
20.5858
52.8505
-13.6888
11.6356
1.00356
31.0806
-6.00138
6.44467
30.1766
-4.98312
-1.94567
-18.6284
-32.505
-22.3402
12.4595
45.3576
14.0992
19.2455
-33.6452
15.733
9.5276
-12.0804
22.8466
1.92677
-12.0971
5.00412
25.2434
14.598
-26.9436
-11.1683
-4.97296
1.96959
-9.37492
-33.1396
-16.8497
8.76059
65.6506
-22.9284
-19.3155
-12.4075
14.7573
-33.5552
18.9131
-2.55097
40.6133
37.0713
-3.11747
49.8983
-33.6301
29.6145
-2.52127
-25.9505
-7.69885
4.67343
-33.7064
44.3115
-6.27227
-1.30664
-7.92701
5.43917
0.141217
-2.12611
-31.3309
8.31753
-8.95024
-8.87918
50.176
-27.1092
-38.1237
4.38155
-50.4468
13.3404
-11.0773
-1.85529
-18.4998
-4.76318
1.64472
7.87433
13.3874
12.0462
7.54231
-23.2112
-9.08508
-16.5689
32.0191
16.1961
-6.13854
11.6389
-4.10898
-32.0085
-17.9174
24.1921
-5.44767
-4.73364
14.8198
-5.89176
-1.73181
5.60838
-0.33149
-1.8279
-41.9968
-7.22307
15.3888
-33.412
-12.989
-29.8864
-30.4067
0.469315
11.5513
-25.0266
12.213
-7.85298
13.0311
-12.9275
-3.08535
20.658
-27.6115
-28.5051
15.6532
-17.7406
12.8165
-33.0476
61.3149
-20.3208
-65.0474
34.0014
-23.1744
-33.8616
5.24121
-33.9609
11.1439
0.317056
-34.9603
-6.23059
-3.56239
45.5845
-27.6322
37.9678
-17.8747
13.7509
-4.49299
-1.55194
-29.2964
-35.443
-8.97547
60.8229
5.76354
-8.78455
-34.1311
-12.7862
-4.90594
-33.8453
-15.7593
27.2417
11.1495
-51.7569
47.6105
-10.062
4.24163
5.50509
14.677
10.7744
15.5098
-4.25795
-10.8445
17.3703
-1.70962
-3.90877
19.7631
-1.42807
3.89509
-4.54968
-5.72775
-10.155
-22.0891
-1.37906
-17.4503
2.18437
-16.1786
-27.3244
-33.4542
-33.1004
-8.7995
-22.1939
-12.0673
3.17441
-2.49328
-33.6336
-24.4686
-0.777632
-5.21805
37.114
-33.5813
-5.07664
-3.13829
6.61348
-33.6531
-4.67925
11.8276
-33.6688
-1.68736
-28.8689
-5.93171
-12.1594
-3.08655
-26.6944
14.4311
4.20046
-3.86229
-1.65113
11.9287
-33.1196
-9.841
10.0192
-33.3653
64.5237
-5.5326
-1.07081
7.06813
-0.138295
5.96403
-1.03674
-0.265864
-10.4872
15.5583
-21.1675
-0.754647
-1.78261
-31.2101
14.8571
-18.3209
-11.8682
14.117
6.0881
13.5717
-30.977
-22.7831
-67.2681
1.47484
-0.922609
-2.15095
-1.51725
5.51357
-1.53748
3.29683
-18.4195
5.40051
-5.19495
-23.5616
-22.5107
-4.23594
-5.42812
14.7699
5.12371
-0.562974
9.9694
-15.0711
-3.88591
-9.54348
-21.5061
1.02928
-3.44861
-7.2401
-6.68031
-28.1333
-16.8863
19.3237
-15.8458
-0.0810745
-1.39011
5.78242
59.8112
1.51877
26.5678
-13.7634
13.5372
0.604115
37.9552
12.3599
1.3621
51.6487
8.58729
-2.47534
-29.3256
-8.45069
-17.1149
-33.6017
11.4147
-33.5843
12.9911
-3.65193
-34.3429
-32.24
11.4466
9.76925
10.8211
-0.591328
-34.4215
12.8975
-29.2117
-5.28837
49.7004
-9.98384
11.9066
-65.954
-27.1576
41.3334
6.72378
-15.534
-21.8326
-7.0354
-1.32594
-17.6082
-1.42818
44.6566
0.667138
-10.7275
-23.5965
-43.2187
-1.01136
-2.11926
12.9301
-9.52954
-32.4114
-23.1233
-2.61295
-23.361
24.7223
-2.06671
-3.20017
-5.56922
-14.5034
-2.4856
11.877
-2.11304
-2.36502
50.7315
18.0041
-10.4871
-4.97274
-0.249192
0.510699
-6.57429
-29.959
-60.1783
-6.36912
11.0553
10.0496
43.1579
-0.669426
26.3332
15.3576
-0.217726
47.6651
-32.9589
-1.81705
-13.3634
-33.5221
-17.3566
9.41099
18.8901
-4.80675
61.3337
-14.4885
-34.1464
38.7891
-12.5411
-12.7222
0.34863
25.1311
16.4367
-31.8799
-33.3124
-2.66029
2.2723
15.6248
0.129238
-14.6775
-0.551918
-33.2937
1.26657
-10.3434
-7.697
25.8009
-12.7394
4.49912
2.68892
-34.3461
0.889165
-2.02909
11.457
0.308159
-4.35559
-14.0022
8.36527
-2.23617
-33.6851
-12.7103
-1.48983
-4.24315
-2.28029
2.91616
49.7593
-33.5997
-14.9803
-2.22833
18.69
56.4945
17.4168
6.94068
26.3163
-7.60969
11.6791
-9.74493
-3.07781
21.5258
-32.048
-32.9719
-2.49646
-33.6183
-17.4833
21.7019
-33.2588
-21.6336
-1.74524
5.37136
1.07067
4.13775
-22.2445
12.1769
-32.6712
-3.28601
-33.1725
-30.1654
18.8902
11.3003
-2.04403
-12.5906
15.7225
-0.252261
-21.1974
-7.12421
14.9845
-34.0659
-2.47026
-1.31962
2.34729
-1.76507
15.0179
-31.5852
10.9747
14.4728
-25.7334
-1.93901
-34.0138
-21.5436
19.6397
-35.5814
0.185473
-0.220398
-30.133
-33.1027
-33.5784
1.70006
22.6601
-45.4131
-21.0162
-2.18205
-0.493478
-3.6364
-32.7136
-28.669
-13.9177
-33.8726
-22.4615
-14.6239
-33.8587
-13.7012
29.4174
10.6253
-1.54414
-3.92434
-18.3438
6.61363
-24.3697
-14.1418
-23.5016
-0.0722642
-24.7076
-11.4367
-0.559501
45.4585
-3.41394
13.3788
-42.9316
-41.6948
12.5119
26.2408
-34.0328
-26.0256
-7.59866
-7.18877
10.0328
-22.0833
5.01974
8.69738
-0.689066
3.18949
-2.54355
-0.894408
-33.493
-30.2997
28.8317
-6.48827
10.3705
-4.20817
-40.7716
-2.10823
-33.0428
-7.74934
3.7065
10.5698
3.0672
12.2063
-24.2279
15.7812
-44.8484
-28.2896
2.22234
5.71328
-12.6411
60.1461
-1.68359
11.0339
3.27163
-9.47615
-3.16689
-0.968313
-26.5512
34.3595
-32.0303
-25.282
-0.537105
-9.72056
8.76991
63.809
10.9386
-3.99164
0.114772
-4.36648
42.9651
-25.7172
-4.62114
-10.3026
-15.8806
33.5132
-28.5813
-0.592387
0.101853
-32.4525
-31.0959
-3.71028
-5.88446
-33.6127
-3.66098
-31.1895
-1.90084
12.5854
63.5864
-4.24447
-31.7962
7.86854
4.64965
12.0045
14.8339
-1.18186
1.65467
16.1635
11.5311
-4.32933
-12.0756
12.1595
-18.8641
26.4076
-16.8928
-22.9241
-2.12308
-26.6339
-4.03665
14.0916
-4.64552
-0.695331
38.2241
-27.4841
14.0134
-33.5245
4.43095
1.41709
-11.3173
12.3129
-2.05145
-8.39238
-15.4431
9.60605
-18.2346
-0.720587
-3.22427
-29.0273
-34.1974
-47.8722
-29.0453
-17.1213
20.3483
-8.83731
-4.69387
-0.143833
9.82557
-30.6322
12.0922
-1.36042
-29.9578
-33.6218
-17.5694
-7.95094
0.177414
13.1738
-12.5904
6.53321
20.0038
-31.5354
-27.0114
-31.5108
-19.9665
-4.15158
-1.33579
-3.46086
-33.7841
-33.5155
-2.47049
-17.9456
3.01644
29.0311
-7.60863
10.5064
14.5183
-33.9114
9.04472
30.5367
-28.8321
1.80292
55.3904
-24.2728
-32.7922
-20.952
0.00152549
-7.37109
5.37
-26.2314
-16.085
10.4387
8.5816
14.6137
-5.585
12.078
-29.4991
-7.75201
-35.0952
-2.55867
15.7352
-34.0234
12.9874
1.76995
-5.7682
0.177734
57.2047
-34.1714
-33.5871
18.1839
-5.10925
-14.3934
-29.6289
-5.48991
-31.5962
17.4759
-60.9763
-2.3532
63.6148
-20.5036
45.6078
-2.36962
10.8993
-18.3887
-33.7156
-1.16915
5.62652
12.6438
-4.89092
-33.7305
5.9545
11.5034
-6.55494
-0.695781
57.6321
20.6444
-2.27302
-6.23004
-16.5428
-29.254
3.94261
-9.87514
16.4867
0.444506
3.49127
-1.2098
-7.02222
-2.34415
35.6026
-1.02061
-33.9844
-4.906
16.9625
-33.8018
8.92106
11.71
-12.7026
14.3007
-33.7406
-2.68637
-23.2799
-28.0475
-34.0533
-13.1459
-32.0248
-23.5628
8.97348
-31.0966
3.23952
-11.7235
-4.94871
-34.2769
14.4352
12.7428
-33.69
-10.339
-10.4089
-33.304
10.8557
-23.7472
31.6164
-3.27298
25.0763
-18.9086
-19.9414
-10.5429
-33.9362
33.294
16.6519
-33.9181
-0.0411996
-33.4726
1.7553
-1.38776
-81.5932
-33.9365
33.5136
-5.77767
-10.6539
10.2962
-10.8462
-1.43804
17.9547
-2.10237
-41.9196
-8.14643
-6.8488
-9.4633
-24.4023
4.08451
24.6922
-11.7693
22.0888
10.976
-11.3919
-5.75662
30.3035
0.799775
-1.96839
46.9404
-8.22015
0.508769
-32.6622
-34.1867
18.3623
15.1643
-14.7411
-9.42274
4.47098
-0.497855
-28.6709
-28.6606
-12.8588
4.09423
-0.173038
0.783132
-16.1001
-3.41234
64.9491
-1.28683
-1.58541
-23.197
23.8265
-35.6549
1.40303
25.2679
-34.0965
13.9577
-4.80728
-44.4081
-2.57306
-0.787603
11.2157
-16.1514
-0.086944
-1.88704
-3.98913
-12.5301
-0.877301
14.1274
-9.43891
-11.4267
-2.67483
7.48375
-3.95039
-7.97708
1.94852
-1.84506
19.1185
20.6015
-9.11312
29.5033
-43.0928
-14.6894
4.59546
7.74615
16.491
7.9283
-17.1008
41.2953
-26.1341
4.83381
-3.29047
-7.07519
-17.2594
-2.23942
-11.815
-32.9051
13.6792
-6.21929
-9.63355
-17.9336
57.6712
-26.572
51.1026
18.6761
2.55705
-3.64655
9.1217
-31.941
-6.88363
48.8738
-4.71196
17.2103
2.91408
-2.38518
13.0503
6.18957
17.0885
-26.5173
9.37442
-4.83979
-32.788
-2.80391
7.05809
-31.9942
7.26104
-1.68062
3.74808
6.66912
42.1201
-3.04797
-22.2641
3.74499
-29.9043
-4.52069
-5.37916
-23.7149
-0.785868
-3.00586
1.14694
-14.428
-1.57293
-15.684
8.65901
38.8765
8.19234
32.7386
22.4073
-2.94158
9.50047
-5.90675
-1.64715
-26.8115
-31.888
47.1208
-23.5841
3.49726
30.6361
-3.94971
-2.52618
-33.5958
0.675673
-19.5434
-23.8725
48.0311
11.3565
23.4025
-1.67336
6.4777
21.5462
-15.8126
12.5438
-4.62841
-12.5743
-0.207469
-0.168984
-3.47248
-2.239
20.157
-28.8359
-6.59371
-34.2473
-32.4229
-8.51138
-32.98
-1.98637
2.84789
2.35001
0.00184873
-33.5311
-11.8578
21.0291
-1.62121
43.4727
16.7443
-2.33399
7.45737
-2.49314
-19.3009
-3.14961
16.5259
-1.66467
-33.1922
-38.3738
49.5883
48.0105
6.4984
-2.94477
-2.37603
28.7884
-97.8041
12.0937
-0.0542816
14.4787
2.3559
-15.0032
14.3139
-31.8831
18.1964
8.7465
0.821502
-6.022
-6.8211
9.07963
-12.7905
1.28597
22.9926
-33.6441
-24.2175
13.2521
-3.79362
11.8859
-9.22758
-5.14916
63.9838
-27.9341
-23.8802
8.71714
-1.99103
-25.4519
35.9862
-33.1712
18.2897
-31.9803
-31.8971
-23.3776
-3.84076
-4.87346
7.20455
-33.5711
15.1196
15.1699
-23.1082
-9.41208
31.0169
-6.83935
-1.20093
-35.1384
-20.9874
-1.08863
-67.0236
-15.9366
-6.23085
-0.460493
7.87594
-3.6462
4.89551
13.6971
-15.3091
-29.2645
-19.3502
-1.76943
-14.5785
7.06225
40.1236
-19.3332
16.0142
-33.5846
-0.742608
15.6144
-27.1174
-4.11627
52.1003
-34.2117
-31.0387
-33.4848
-3.22042
17.4029
-37.8472
-1.60409
-85.3347
-0.607213
10.4462
-0.985057
-11.9375
-5.33256
11.84
-16.4142
12.6119
16.7461
-4.29157
-33.3395
0.438051
-2.29446
-0.413542
-5.63718
9.7047
-6.07616
-0.609459
-5.26952
1.07669
-4.04483
32.2784
-49.5797
-12.7944
-4.33052
-1.53071
24.6753
-19.3396
-1.39407
41.2237
-17.6448
62.9944
-2.91024
57.6726
-59.0818
-16.6333
31.7449
26.1834
-27.0403
37.5731
-23.8455
-22.6999
55.5919
-11.6181
12.9571
-22.237
-14.4031
-9.02571
-34.1653
11.7617
-5.46825
6.86531
-14.8836
-28.5911
4.85289
-6.50367
-5.70144
5.2026
-0.46364
0.624415
36.1945
27.8111
19.5902
14.2393
-12.979
0.889404
-1.74225
-33.3265
-6.66495
9.49106
11.0325
-11.6753
12.68
-33.6747
62.5231
-5.09809
-18.2594
-1.68586
18.6232
-4.99496
-11.4418
0.489618
36.9452
-1.24912
-28.7847
-4.29255
2.03504
-33.8557
-15.5805
16.2581
-4.07378
5.23537
-35.0257
-17.5786
2.23761
9.81407
10.1358
-2.8767
-25.2195
-35.4871
-5.52582
18.3951
-4.00489
5.9076
-0.937924
-27.4258
-29.8451
40.6793
-31.3004
-4.85887
31.9966
-21.1128
0.745334
-2.37825
-58.8989
-32.6666
-2.25255
7.40466
33.4535
10.5128
-10.5234
-2.15192
-33.5259
-33.4408
-5.29843
33.0914
-1.30778
8.86776
-1.86504
-1.25758
-10.5486
-29.741
-13.8448
11.8554
-7.96933
-30.5183
18.0747
19.2706
-10.0566
16.6742
-0.750222
-11.5157
32.6028
-0.983343
0.0515129
1.91259
-16.1737
-3.84472
0.685127
-1.37793
-25.1827
-33.4364
-3.85381
9.29959
-0.435071
-0.782436
13.7409
-18.8176
20.305
-59.6719
-9.79512
36.4811
17.6371
2.37341
-0.726002
44.9998
-29.8555
-33.5347
13.3551
-31.7243
6.51863
-11.9349
-0.272855
-5.36116
10.9412
-10.2589
51.0447
-9.31022
-7.8801
6.63679
-4.15855
10.6363
12.2465
-31.5939
-17.0486
6.4681
53.2261
3.98807
21.627
0.142399
-15.3113
20.7706
13.1177
-14.2409
6.57441
18.0364
-1.65458
-17.8966
-7.87518
1.33447
3.5609
-5.81083
-37.4137
-32.2005
4.04196
-10.1463
57.1569
13.5275
-34.304
-7.2919
-31.2689
-48.9697
-3.40522
21.6832
0.564673
-24.7204
8.44848
11.2566
-0.866658
-8.87139
-33.6249
6.40238
-1.86658
14.4443
3.92892
-24.5513
-29.6993
5.99959
14.7306
-11.7462
5.01145
-9.0102
-8.49839
41.4861
12.1727
-31.8997
19.1175
-2.10817
-19.8916
9.66841
-31.035
-28.8873
-17.6829
11.7914
-0.685744
20.9547
-30.1898
11.316
-33.1252
-46.9043
-9.0674
50.7915
-11.7387
3.01361
20.3351
10.1632
-31.2431
19.6844
-1.87508
8.00297
-29.237
1.92591
-26.2958
-3.00085
43.8116
16.5612
10.9086
-8.4317
-53.096
-21.4189
-21.3266
1.22946
-1.97874
51.2515
-31.3897
10.3579
-10.086
18.5668
-7.76454
-15.414
16.5599
13.1818
-7.29019
-3.6882
-2.86128
60.3764
-20.5434
9.73569
-1.61585
10.9835
-6.6403
45.4352
-4.74526
-31.2321
-16.9765
53.0656
14.355
-5.10076
-15.5195
-19.9352
-5.06396
-9.26895
-29.1344
-6.28411
9.50072
9.94008
-2.44582
-0.262661
46.7737
16.9264
44.1462
22.4526
22.6198
-32.1188
-20.8508
-1.49761
-2.21419
-35.2501
14.2504
-30.9805
5.35304
-28.5872
-10.3574
-9.06963
-1.61013
-43.2724
2.78516
-15.8951
-30.6595
-31.46
0.767663
-1.60428
-33.1547
-5.95374
0.269341
12.4349
-7.51739
-1.09918
-14.3745
-14.3046
-15.6318
-12.0336
34.5754
-18.248
-4.13778
-10.4636
16.2875
-37.4102
-3.65077
-2.94809
-2.154
-7.34637
7.24627
3.60308
40.1604
-27.9816
15.0973
-36.5952
5.91761
-2.91884
-4.92452
-7.31174
-25.1993
-3.85398
-23.9313
-33.0871
-31.8311
-34.1954
-0.682941
-15.205
-6.55544
-33.9761
-8.96965
-33.5549
-4.24863
13.9141
14.9387
9.56454
21.9031
-33.6624
-30.9303
-24.9239
0.285787
50.5085
-33.4675
-24.9136
-2.82248
-33.9609
29.4522
19.8403
8.47392
16.0407
-28.5251
-4.92322
12.1897
-8.81478
13.3455
-33.1929
-10.9921
-11.8193
-16.1632
-7.11539
-3.37613
-34.3148
12.1882
-18.7503
-17.9731
-10.9396
34.8982
-9.40893
-7.39072
-21.883
-21.3292
27.3529
-33.35
-14.1926
-32.8521
1.39607
-32.2741
-0.423672
-4.02598
36.1551
-10.1621
-33.6902
9.84383
-4.01258
24.6137
9.33233
-3.59685
7.30753
-32.2021
-2.18444
0.658802
-8.43684
-12.0652
17.5114
-1.09585
16.826
-2.6974
-6.78283
8.51764
-24.3037
9.9278
8.49525
-32.9185
-37.0789
10.3363
25.4555
8.63422
-14.9289
-1.87772
-49.5838
7.32493
-0.729119
6.01194
-1.97113
15.8236
22.4053
23.3605
-3.92219
-7.20578
9.69867
-24.2776
-20.7267
-32.8983
-33.9278
-30.4104
-32.7491
5.3655
9.40242
6.32966
-15.2082
-5.08632
-3.41862
-3.19054
11.4934
-3.49009
-38.2466
-2.71781
-19.7386
-5.02426
0.394865
10.8834
12.858
11.6295
3.26291
-33.2826
-28.2538
2.13321
-77.6976
24.1298
-7.73799
-11.2051
11.1601
-2.28651
11.6572
23.2081
-19.9761
-29.18
11.6533
9.50657
-33.2797
-29.7441
11.6998
-2.07941
-22.5409
-6.75264
13.7534
-19.7244
22.1452
-2.00697
-2.32027
-8.5139
-24.9808
30.7515
35.9724
-77.8325
-25.8318
-23.2469
47.0087
12.9483
-0.309435
31.9017
-73.3907
33.6475
-33.1367
32.7142
-6.35042
-0.564227
6.11939
-34.0379
-1.45235
19.3057
-54.8043
7.0694
-8.51361
-3.64377
-1.0202
-26.4352
-34.0004
-1.91658
-5.45025
-0.230122
-45.8744
-33.4433
-4.53657
-1.81141
-3.58104
-28.1663
-5.27274
23.4497
0.271668
-20.8685
-24.2934
25.7396
-33.4665
13.0754
7.06513
7.74957
7.54888
-22.2682
17.1923
-0.951196
-28.9164
21.5665
-9.80388
3.69269
-2.34778
12.492
-10.7661
-54.6603
-5.12288
-2.30664
-33.4395
-9.31409
-79.6132
-13.0915
-23.5937
35.9532
8.40408
-3.28902
-5.78262
18.3174
-32.8783
-3.45618
-16.4749
-12.6489
-13.7973
0.141723
12.022
11.3849
-18.6957
2.80799
-0.868268
-4.35627
37.9095
-32.5386
-33.5357
-7.67108
-7.23407
-27.4826
-5.80768
-64.688
-5.30947
0.896369
-31.3326
-29.0738
-7.99721
-3.87416
11.1274
-32.5533
11.7182
-12.273
-27.5104
-37.115
-4.33457
-0.879718
16.5471
8.62491
-0.123021
49.7509
-4.56149
8.57112
-4.51353
-0.917531
10.5373
21.3193
-9.41868
-20.758
-32.5554
-32.7705
-0.356989
22.8357
0.814587
-1.97353
8.6605
-16.1181
11.5861
-27.3975
-10.665
-9.34844
13.6431
0.036903
-24.5115
-1.38979
-33.4832
-19.1031
-10.7729
-2.27865
-1.19492
-5.43864
-77.6173
-3.37101
-18.0078
-39.4487
-4.69222
1.92756
11.5054
-6.68876
-0.0772953
24.5977
1.04888
13.1788
-4.91203
-0.333347
-33.1301
-7.1407
-6.8869
-11.9942
-9.2678
-25.7539
-24.7902
-11.4964
1.7626
20.1966
-24.5996
-1.11777
-31.4889
-34.4159
-3.80332
-15.1573
-8.86411
-9.0099
28.0302
40.0438
-33.8029
-33.3305
-8.14007
-9.08005
-12.1918
7.43478
-2.69568
-20.0128
-13.1142
-8.66489
-15.2457
18.4433
-25.5248
-13.2194
-33.6677
2.72426
10.4679
20.8245
-84.0271
-0.302468
-11.215
0.213275
0.328936
-14.3573
11.3152
-3.33395
-21.521
-33.8171
11.462
-8.91467
-3.63318
-6.22525
10.2865
-4.72661
31.5452
11.4214
-31.6673
7.74671
39.0605
5.61545
-6.20277
-4.64672
-33.9197
31.2152
8.51934
9.52294
-26.6026
11.8716
37.4627
3.86891
14.3241
-0.743306
-28.6069
24.1861
13.1014
-10.8264
-29.4257
-33.3888
2.39519
-0.121414
10.2027
-33.8638
-8.42518
-48.8251
-0.457261
-0.758114
5.34527
12.5835
-6.7727
-31.53
10.4078
-33.4391
-7.78657
10.5136
-29.552
-2.8852
-33.2425
4.14714
4.51015
-28.602
25.4901
15.2768
-6.4588
46.5752
-4.219
-31.5478
-18.8646
-33.1488
-0.250704
14.7202
-6.0622
-4.23111
15.0482
-1.65125
11.6427
7.06964
-13.3176
-32.1135
-29.178
-4.55404
41.7354
-11.6441
-24.0061
-2.99639
2.96816
13.7357
10.541
-22.3245
-12.3812
-5.23355
46.637
-34.7426
17.3585
-9.20313
-2.4123
7.55102
-9.45766
-2.04891
25.3221
-0.844748
-1.61976
11.8189
8.62343
-15.8797
6.13326
10.3678
-32.972
-0.389114
-4.48737
-22.3127
-33.8141
5.2904
-30.831
-31.5081
-2.13652
-24.661
21.1006
-16.61
-10.6946
-12.8179
6.24272
12.2149
6.79775
-0.234155
10.7487
-7.29125
-6.2918
7.61642
-1.58685
-10.3707
14.9783
-34.2235
-54.1298
22.2595
1.20603
4.59049
18.4066
-13.0473
-20.5853
-8.00834
-20.587
10.1906
-4.14388
18.1317
63.4778
-27.5506
-14.7343
0.412681
12.7688
5.85628
-4.07172
-1.97183
-21.2821
-6.99339
-32.3874
-29.4988
-8.54897
27.9727
27.0038
4.41971
4.359
-32.5027
11.2798
57.263
-33.1645
-27.6351
-4.80873
-32.846
-1.54971
12.5289
0.908862
33.2147
-23.3639
10.5017
-19.3987
12.3366
-31.0688
-3.31571
40.1669
-38.633
5.94402
-35.1242
-27.3224
-10.2688
-2.40956
3.84713
7.1318
-33.3905
-10.768
14.5208
-1.3965
-30.5295
-14.3903
4.90025
-34.1197
10.4689
31.6463
-27.1928
-10.7616
3.42735
11.6348
60.0546
-8.10564
21.6992
10.6962
36.9237
14.9949
-33.3932
-22.6168
-1.11178
-2.6787
0.445616
-0.923925
11.7927
-2.00513
-33.6189
-2.77581
-6.53827
-22.6563
2.39219
-7.86997
-32.0978
-2.06965
4.0065
-16.6089
-13.9265
6.721
-0.284013
12.3476
-26.198
-0.148686
10.1789
-22.0458
-4.15438
-2.79824
-2.18703
-3.20101
-7.33493
-6.46945
-34.2355
-2.5292
-12.1138
-33.4705
-50.0963
-13.0554
5.89992
-5.31529
-6.15437
-31.8536
14.9768
0.824995
8.09288
46.1889
-1.64953
21.5057
-8.89614
-2.16
9.25928
-24.6714
-14.8491
26.1991
-19.1256
-14.3681
15.4734
-24.9314
-28.4319
13.4039
-31.1201
-13.5656
12.1653
-8.55901
-3.01588
-0.951468
-33.4462
-15.0539
-46.6761
-0.443375
-1.54753
-7.65664
-15.7462
-31.7501
-12.4714
28.1239
-27.1895
0.627677
-12.1193
-11.566
-33.8139
-1.47287
1.1594
-32.5118
-36.2893
11.6988
9.15867
3.35927
-9.9999
-11.6467
-28.2953
30.2329
-62.513
15.1289