/*--------------------------------*- C++ -*----------------------------------*\
  =========                 |
  \\      /  F ield         | OpenFOAM: The Open Source CFD Toolbox
   \\    /   O peration     | Website:  https://openfoam.org
    \\  /    A nd           | Version:  7
     \\/     M anipulation  |
\*---------------------------------------------------------------------------*/
FoamFile
{
    version     2.0;
    format      ascii;
    class       surfaceScalarField;
    location    "350";
    object      phi;
}
// * * * * * * * * * * * * * * * * * * * * * * * * * * * * * * * * * * * * * //

dimensions      [0 3 -1 0 0 0 0];

internalField   nonuniform List<scalar> 
22555
(
0.00418424
-0.0706341
0.0973459
-0.0308961
0.000634357
0.00257602
-0.000798859
-0.00241153
-0.0223924
-0.00348571
0.0228028
0.00307533
0.00390133
-0.00359983
-0.00430757
0.00400605
0.0672115
-0.169519
0.0327229
0.0695847
0.00270262
0.000723522
-0.00279184
0.0729598
0.0366888
-0.0763936
-0.033255
0.0800179
-0.0630174
-0.0334793
0.0164788
0.0273541
-0.126955
0.103369
-0.00376839
-0.0103224
-0.0183722
0.0211386
0.00755604
0.05055
-0.0769111
0.0860192
-0.0596581
-0.0285807
0.0011476
-0.00753695
0.03497
0.00423375
-0.0473161
0.0109365
0.0321458
-0.172447
0.138974
0.0351376
-0.00166437
-0.102632
-0.0123162
0.0925239
0.022424
0.00241136
0.000449265
-0.0057387
0.00287804
0.0707057
-0.0527821
-0.035259
0.0173354
-0.0857842
0.0578449
0.0554531
-0.0275138
-0.0277936
0.0209695
0.068457
-0.0616329
-0.030795
-0.0723631
0.032516
0.0706422
0.00452297
-0.00517715
0.00598147
-0.0053272
-0.118366
0.140629
0.126687
-0.14895
-0.00748676
0.00737487
0.0233282
-0.0232163
-0.00221435
0.00109488
-0.000911068
0.00203058
-0.0478989
-0.0824495
0.0134267
0.116922
0.0410785
0.0565214
-0.0348707
-0.0627294
0.000140685
-0.00321292
0.00113207
0.00194017
-0.0785966
0.0170505
0.0134906
0.0480554
-0.0643074
0.0624988
0.089231
-0.0874224
-0.0511718
-0.0825843
0.0611064
0.0726496
-0.0682832
0.0598079
-0.00440503
0.0128804
0.115571
-0.0972765
0.0845909
-0.102886
-0.1026
-0.0854047
0.0956641
0.0923413
0.00270767
0.0847082
-0.0814164
-0.00599948
0.00520551
-0.00468788
-0.00547605
0.00495842
0.184112
-0.0461549
-0.151223
0.0132665
0.111077
-0.139516
-0.0692157
0.0976551
0.0663127
-0.0321866
-0.147105
0.112979
0.0903477
-0.0463463
-0.114025
0.0700236
-0.0445861
0.0576094
0.0217254
-0.0347487
-0.0430061
-0.0487778
0.0574255
0.0343585
0.115991
-0.11282
-0.00583525
0.00266499
-0.100753
0.140359
-0.0412555
0.00164908
-0.006171
-0.0191097
0.0174847
0.00779605
0.0694496
-0.0591563
0.0475666
-0.0578599
-0.0604025
-0.0488999
0.0829183
0.0263841
0.0170585
-0.100618
0.0576672
0.0258925
0.00501649
-0.00980519
0.0121064
-0.00731786
-0.0031538
0.00377905
-0.000854684
0.000229447
0.0461871
0.17503
-0.119005
-0.102212
-0.00471688
-0.0131079
0.0109268
0.00689792
0.083344
0.0414432
-0.0755081
-0.049279
-0.00643508
0.00680362
0.0173001
-0.0176686
-0.0653787
0.00327799
0.0660106
-0.00391019
0.0304944
-0.0621764
0.0538074
-0.0221255
0.0607833
0.052947
-0.0598503
-0.05388
-0.0128764
0.0144019
0.0203401
-0.0218656
-0.00021247
0.00194915
-0.00250128
0.000764544
0.161044
-0.0947982
-0.0200591
0.0259361
-0.0121877
0.00898189
-0.0227302
-0.011722
0.0455438
-0.0289461
-0.00487573
0.0514869
0.051514
-0.0594227
-0.0435784
0.175804
-0.0143188
-0.0227855
-0.138699
-0.00137876
-0.00173559
0.00190407
0.00121032
0.0478423
0.0509727
-0.0608449
-0.0379703
-0.165029
0.106352
-0.00609318
0.0647709
-0.0294013
0.094232
-0.052448
-0.0123827
-0.00378673
-0.00426909
0.00407101
0.00398478
0.00108166
-0.00487498
-0.022623
0.0264163
0.00604295
0.00130988
-0.00534359
-0.00200918
0.0629659
0.08698
-0.0411755
-0.10877
0.133157
-0.0460719
-0.0831346
-0.00395077
0.0695548
-0.115061
0.104501
-0.0589949
0.0303709
-0.0283453
0.10179
-0.103816
0.0253771
0.0489511
-0.0116542
-0.062674
-0.0533103
0.14473
-0.119392
0.0279719
-0.00763058
0.00122135
0.000617676
0.00579156
-0.0681795
0.0108867
0.0574604
-0.000167668
0.0410155
0.146775
-0.123388
-0.0644016
-0.0353942
0.0197355
-0.0042667
0.0199254
0.00861583
0.00695377
-0.00665242
-0.00891724
-0.00250627
0.0137209
-0.012998
0.0017833
-0.00454131
0.00511081
-0.000569504
0.0183306
-0.0216616
-0.0252674
0.0285984
-0.0249693
0.0169813
-0.024952
0.0329401
-0.0316097
0.0109103
-0.000412527
0.021112
0.133394
-0.141758
-0.00732718
0.156149
-0.0127426
-0.0917249
-0.0516819
0.0225304
0.0350818
-0.0198897
-0.0377224
-0.0227501
-0.0408061
0.0349078
0.0286485
0.0970359
-0.0607896
0.1036
-0.139847
-0.0372258
0.0412388
-0.043499
0.039486
-0.00265959
0.00205664
-0.00155393
0.00215688
-0.0217038
-0.0260157
0.0332129
0.0145066
-0.115829
-2.21291e-05
0.0627876
0.0530633
-0.01157
-0.0233028
0.035348
-0.000475095
0.053644
0.0576107
-0.0566881
-0.0545666
0.00508138
-0.00295186
0.0090261
-0.0111557
0.000888179
0.00162393
-2.97728e-05
-0.00248223
0.0570652
-0.107276
-0.0746903
0.124901
-0.118371
0.0387671
0.0939938
-0.01439
0.0269586
0.0269875
-0.0256695
-0.0282766
-0.00721217
-0.0224795
-0.0724697
0.102161
-0.141118
0.00928417
-0.0201468
0.151981
0.0416751
-0.0473858
-0.0680218
0.0737325
-0.00687955
0.000585471
-0.000113274
0.00640735
0.00203815
-0.00136738
0.00116638
-0.00183709
-0.0850543
-0.0427304
0.0851505
0.0426343
0.123248
-0.104482
-0.0075357
-0.01123
-0.0532593
0.000748986
-0.00315036
0.0556607
-0.00505766
-0.0701012
0.000206179
0.0749527
0.00772836
-0.0569578
0.00580535
0.0434241
0.0281882
-0.035219
-0.00597861
0.0130094
0.0877816
0.0495167
-0.0485361
-0.0887621
-0.00387637
0.00445044
-0.00305511
0.00248093
-0.008691
0.0115966
-0.100143
0.0972374
-0.0482062
-0.00613407
0.00500042
0.0493398
0.102448
-0.0502407
-0.104854
0.0526464
0.0453598
-0.0851273
-0.132679
-0.000483037
-0.0031374
0.00475685
-0.00113645
-0.00130509
-0.000725033
0.0025455
-0.000515417
-0.0615088
0.0305584
0.0575881
-0.0266377
-0.0120982
-0.0264636
0.015187
0.0233748
0.0840942
-0.106138
-0.00554143
0.0275854
0.0235059
-0.0348531
0.0079564
0.00339081
0.0285855
0.0148397
-0.108834
0.065409
0.119692
0.0235041
-0.0987065
-0.0444898
0.0421272
-0.0566626
-0.0382191
0.0527544
0.0220263
-0.0493328
0.046632
-0.0193255
-0.0353565
0.00123225
-0.00330598
0.0374303
0.0517817
0.0723569
-0.0544376
-0.0697011
0.0384971
0.0358567
-0.0530408
-0.021313
0.00212168
0.000966502
-0.00228235
-0.000805799
0.0589239
-0.0402971
-0.00502479
-0.013602
0.0709402
-0.0523402
-0.00559483
-0.0130052
0.114398
-0.107631
0.0595265
-0.0662935
-0.0658038
-0.0491279
0.0389658
0.075966
0.00792059
-0.0221611
0.0145041
-0.000263765
-0.00202059
0.00581419
0.00552776
-0.00932131
0.0275974
-0.0217451
-0.0909066
-0.0701103
-0.0120457
0.00505339
0.0771027
-0.0040256
0.0779868
-0.127272
0.00999633
0.00396596
-0.00943923
0.00558262
0.0255157
-0.0341227
0.00302434
0.0175435
0.131058
-0.101689
-0.0469124
0.0329346
-0.0706647
0.0622559
-0.0245258
0.00219064
-0.0053127
0.00581829
-0.00269627
-0.0227481
0.0485416
-0.058234
0.0324405
-0.0268288
-0.0881942
0.0871574
0.0278655
0.0416059
-0.011952
0.00122936
-0.0308832
0.0878873
-0.0874578
0.0483938
-0.0488233
-0.0363222
0.00291355
0.0221061
0.0113026
0.0864551
0.0101816
-0.0278847
-0.068752
0.000553882
0.00368583
-0.00272255
-0.00151713
0.0480953
-0.0705835
-0.0390523
0.0615405
-0.129
-0.0222843
-0.00805982
0.159344
0.0386786
-0.101708
0.111193
-0.0481647
0.0428845
-0.0480891
-0.114251
0.119455
0.00459816
-0.00645559
0.00684894
-0.00499159
-0.0843039
0.0638566
-0.047269
0.0677163
-0.119981
0.0981916
0.0247465
-0.0029568
0.00742135
-0.134626
-0.0139136
-0.00388317
0.00792962
0.0423141
-0.0463605
0.025889
0.142659
-0.0529772
-0.00278547
0.00327329
0.000763025
-0.00125078
0.0512597
-0.0406502
0.0454112
-0.0560208
-0.0342766
0.0181164
-0.0518394
0.0679996
0.00546062
-0.00559754
-0.00125412
0.00139109
0.12565
0.0615132
0.0144658
-0.201629
-0.151256
0.0154063
0.131772
0.00407784
0.000909899
-0.00231208
0.00154287
-0.0400408
-0.135969
0.11119
0.0648205
-0.0115235
0.019257
0.0263853
-0.0341188
0.00172477
0.0498473
-0.0578012
0.0062291
-0.0359944
0.0806615
-0.0998334
0.0551661
-0.00264766
0.0386447
-0.0121963
-0.0238007
0.0260155
-0.0343802
0.0440075
-0.0356428
0.000418931
-0.00177589
-0.00219349
0.00355037
-0.00519252
0.00272107
0.0326355
-0.030164
-0.0847821
-0.0384755
0.00812054
0.115137
0.0277117
-0.0154404
0.00605924
-0.0305665
0.0705073
-0.0700919
0.0301511
0.0390992
-0.0175995
-0.0266303
0.00513056
-0.0136905
-0.031638
0.0540584
-0.00872984
0.00275776
-0.00143039
-0.00409858
0.00277137
-0.00178496
0.000404962
0.0389767
-0.0375966
-0.00881223
0.0314706
-0.00721895
-0.0154394
-0.00254917
-0.00689164
-0.0259157
-0.0253658
-0.0286314
0.0236829
0.0303143
-0.00285109
0.00358121
-0.00378219
0.00305211
0.12854
-0.0386773
-0.142476
0.052613
-0.131966
0.0212657
0.0868964
0.0238034
0.0344429
-0.0384134
-0.0212814
0.0252519
-0.115651
0.110291
-0.0158688
0.0212288
0.0924052
-0.0459451
-0.0319937
-0.0144665
0.0156994
-0.0227221
-0.0870737
0.0940964
-0.00332585
-0.00416866
0.00370777
0.00314386
0.0718585
0.0132451
-0.0882475
-0.0164825
0.0398052
-0.0363617
0.0130391
-0.0388672
0.0618016
0.0207455
-0.0436797
0.0525709
0.0158134
-0.0925982
0.024214
-0.00578475
-0.040664
-0.00681058
-0.00193358
0.0714844
-0.00558069
-0.0639701
0.00408348
-0.0054564
0.000401215
0.000971623
0.0112107
0.087114
-0.088352
-0.00997273
-0.0949395
-0.0730538
0.116407
0.0515859
-0.0485968
-0.10825
0.0573932
0.0994534
-0.0116118
0.103128
0.00264438
-0.0941607
0.0512309
-0.0638221
0.0619369
-0.0493457
-0.000290029
-0.048855
0.0290371
0.0201079
0.0144337
0.0387973
-0.0323561
-0.0208749
-0.0846251
0.0552308
-0.0999602
0.129354
0.0908768
0.0655118
-0.132146
-0.0242428
-0.0584706
-0.0717697
0.0686636
0.0615768
-0.068609
-0.086355
0.0552966
0.0996674
0.0804287
0.0127736
-0.0368487
-0.0563538
-0.0605748
0.0842745
0.0611733
-0.084873
0.0329193
0.0684967
-0.0324934
-0.0689226
0.118802
-0.0611192
-0.0874252
0.0297428
-0.00453308
0.00343001
0.0035144
-0.0252768
0.0431626
-0.0315763
-0.0400751
0.0547482
0.0333163
-0.0479895
0.000981553
-0.00527726
0.00562765
-0.00133195
-0.00210587
0.00139119
0.00071491
-0.057722
-0.0536174
0.0287201
-0.0320444
0.0248449
-0.0215206
0.0027347
-7.84738e-05
-0.00265617
0.127374
0.00023272
-0.0423072
-0.0852994
-0.0358765
0.0456757
0.0586115
-0.0684107
0.0439139
-0.0444036
0.0443912
-0.0439016
0.00439297
0.061513
-0.0528705
-0.0130355
-0.06261
0.0500211
0.0430834
-0.0471171
0.036753
0.0262049
-0.0158409
0.0419425
0.0751003
-0.106068
-0.0109745
-0.0224516
0.00228153
-0.00564568
0.0258157
-0.00294492
0.00273466
4.16881e-05
0.000168614
-0.0628893
0.0375692
0.0548246
-0.0295045
-0.0404784
0.0571607
0.0170084
-0.0336907
0.0112589
0.00379084
0.0532895
-0.0111866
0.0043586
-0.0464615
-0.0593485
0.0780382
-0.115966
-0.0151267
0.0276806
-0.0298118
0.0172579
0.0227434
-0.0253091
-0.0185445
0.0211102
-0.104294
0.134875
0.0270998
-0.057681
-0.0283882
-0.0195475
0.0262741
0.0363528
0.0754457
-0.0912681
-0.0205303
-0.072779
0.0809206
-0.0349704
-0.0325066
0.0440496
-0.0523756
0.0408325
-0.0423035
-0.0414634
0.0934631
-0.0096962
-0.018496
0.035623
0.0219722
-0.058166
-0.041001
0.04327
0.055897
-0.0766699
-0.135964
0.164606
0.0480276
-0.0323343
0.0130242
0.0390632
-0.0197531
0.0870576
-0.107966
0.0657999
-0.0448918
0.00325466
0.045722
-0.0128471
-0.0361295
-0.0636868
0.0218429
0.0712146
-0.0293708
-0.0180483
-0.00582027
0.0147927
0.00907596
0.0854573
0.047379
-0.0711074
-0.061729
0.00831606
0.0202692
-0.0586552
0.0300699
0.0752033
-0.0736709
-0.00057014
-0.000962249
-0.0625617
0.0498456
-0.0109022
0.0236183
-0.0133081
0.0799235
0.0655162
-0.132132
-0.0408456
0.000710051
0.00534541
0.03479
-0.014721
-0.0848369
0.0788626
0.0206954
0.00459502
-0.0205177
0.0134248
0.00249788
0.0342892
-0.0630079
0.0398043
-0.0110855
0.0474077
0.0718665
-0.069591
-0.0496833
-0.00416714
0.00542959
0.00958561
-0.0108479
-0.000802641
-0.00795489
0.00875766
-0.062049
0.0654687
-0.022647
0.0192273
-0.00130254
-0.00112663
0.00242886
-0.0647772
0.102682
-0.0499859
0.0120815
-0.0173742
0.0134012
-0.0353331
0.0393062
-0.0100429
-0.113752
0.0487116
0.0750833
-0.0148133
0.111457
-0.00675744
-0.0898864
0.00217324
0.00530152
-0.00143176
-0.0712039
-0.0118429
0.0634991
0.0195477
-0.0648783
0.0963824
-0.0973612
0.0658572
0.0463519
-0.0486158
-0.0436972
0.0459611
0.0373084
-0.0605966
0.128636
-0.105348
-0.0672716
-0.0731809
-0.0096116
0.150064
-0.0257114
-0.0412166
0.0366218
0.0303061
0.0181091
0.0678897
-0.0670283
-0.0189705
0.016256
0.0574428
0.00528851
-0.0789874
-0.00318439
-0.0182982
-0.0270932
0.0485758
0.136766
-0.114766
0.0199426
0.00140045
0.00205206
-0.000694654
-3.594e-05
0.0039154
-0.00387938
0.088065
0.0700485
-0.150367
-0.0077462
0.0067204
-0.0546872
0.00712113
-0.00287524
0.00457967
-0.00434808
0.00264357
-0.0784014
0.0722312
-0.0482693
0.0544395
-0.00181391
0.00232136
0.00382538
-0.00433285
-0.114074
0.108051
-0.0425736
-0.00304703
4.31552e-05
0.083376
-0.0843669
-0.0504378
0.0514286
0.00707665
-0.00741413
-0.00646767
0.00680505
-0.106648
0.109673
0.0276767
0.00680759
-0.0406183
0.0385042
-0.00469354
-0.00129285
-0.00172629
0.00283189
0.000187278
0.067041
0.0801375
-0.0394075
-0.107771
0.0355006
-0.0281576
-0.0431335
0.0357906
-0.00452374
0.00948754
0.000241691
0.0455545
-0.0498542
-0.0361788
0.163891
-0.152733
0.00786983
-0.0190271
0.0897344
0.0500251
-0.0797372
-0.0600224
0.0132396
0.00192615
-0.0111489
-0.00401692
-0.03668
0.134009
0.0637156
0.12516
0.0158345
0.00127732
0.0638089
-0.0537904
-0.0928867
0.0828681
-0.0279899
0.0217284
0.00756873
-0.00130723
-0.120341
0.0403584
0.120998
-0.00548145
-0.00205141
0.00050216
0.00703061
0.00535
-0.040344
0.0326099
0.00238408
-0.027956
-0.127286
0.0149322
0.14031
-0.03495
-0.00082533
-0.0330149
0.0687902
-0.00952437
0.00553267
-0.0012525
0.00524424
-0.0506539
0.0491526
0.0397391
-0.0382378
0.00377517
-0.0328166
-0.023198
0.0522395
0.0414444
0.0164189
-0.0500444
-0.00781896
-0.0492216
0.0175078
0.0683956
-0.0366818
0.0007461
-0.00312097
-0.00193905
0.0043139
0.0961321
-0.129712
-0.0690209
0.0915744
0.0239439
-0.110687
-0.00483142
0.0690412
-0.0415824
0.0251122
0.024278
-0.0276386
-0.0123686
0.0157291
-0.07445
0.0148856
0.00437996
0.0551844
-0.0375053
-0.0112824
0.0247599
0.0240278
-0.025301
0.0349674
0.0190537
-0.0916462
0.117634
-0.0403267
0.0143394
0.0186419
-0.0219669
0.0010964
0.00222853
0.0565223
-0.10455
-0.000361903
0.0240749
0.00830829
-0.0320212
0.0553209
0.0149785
-0.0546088
-0.0156906
-0.0768847
0.0170685
0.0760289
-0.0162128
-0.046032
0.038347
0.0330621
-0.047893
0.0218573
0.156922
-0.130886
-0.00360696
0.00146162
0.000355892
0.0017895
0.0552687
0.0284283
-0.0542983
-0.0293987
0.0455504
-0.036827
-0.0201557
0.0114324
0.000834216
0.00515154
-0.00612272
0.000137
0.0256155
-0.013287
0.0391581
0.0195205
0.0445541
-0.0743592
0.0102846
0.0320907
-0.0336569
-0.110064
0.11163
0.00190123
0.00508502
-0.135986
-0.0262678
0.150049
-0.0828652
-0.0409158
0.095431
-0.0805043
0.0877302
-0.102657
0.0736273
-0.0402306
-0.0692796
0.035883
0.0139897
0.0226447
-0.0207256
-0.0159088
0.119759
-0.0630277
0.0919585
-0.0107824
-0.0158865
0.00755732
0.0191117
-0.0694182
-0.0114016
0.0153647
0.0654551
0.0589863
-0.0103795
-0.0402475
-0.00835922
0.0263209
-0.0258309
0.0154915
-0.0159816
-0.0320416
-0.0491937
0.027765
0.0534703
-0.0481962
0.056669
-0.0339398
0.025467
0.00445625
-0.00648971
-0.0216886
0.0237221
0.0141134
0.0422182
0.00618838
-0.06252
0.0438854
0.134138
-0.0811096
-0.0969136
-0.0472061
-0.0546705
0.0512073
0.0506693
0.0115148
-0.100163
0.012515
0.0761337
-0.0476067
0.104435
0.0284293
-0.0852579
0.0267624
0.045513
-0.0294974
-0.042778
-0.113451
0.106963
0.0671569
-0.0606691
-0.123592
-0.0439081
0.139544
0.000954839
-0.00444898
0.000650073
0.00284411
0.0482014
-0.0354506
-0.0413342
0.0285835
-0.0142792
0.00781462
-0.00673065
0.0131953
0.022936
0.036124
-0.0239218
-0.0351383
0.0499197
0.00168557
-0.0980845
0.0464792
-0.0919032
0.0414116
-0.00909492
0.0595865
-0.0941034
0.0140189
0.0931433
-0.0130589
0.00375478
-0.000226892
-0.0019158
-0.00161208
0.00365666
0.00508216
-0.00359506
-0.00514379
-0.0208837
-0.0375045
0.0389679
0.0194204
-0.00105278
-0.0431208
0.0308198
0.0133538
0.0206676
-0.00598105
0.00676728
-0.0214538
0.0848501
-0.0879932
-0.0383672
0.0415103
-0.0409376
0.0248489
-0.028132
0.0442207
-0.0123128
-0.0124357
0.00229683
-0.0737867
0.107772
-0.0801816
0.0461958
-0.0732644
0.0402176
0.0616323
0.0917967
0.0386583
-0.0794739
-0.0509812
0.0266732
0.0176506
-0.109219
0.0648951
0.0353872
-0.0792854
0.0671615
-0.0232632
0.00948801
-0.0103385
0.0213293
-0.0204788
0.00350924
-8.53287e-05
-0.00412576
0.000701843
0.011859
0.0543778
-0.0569706
-0.00926623
0.0802771
0.0327759
-0.059004
-0.054049
-0.0570353
0.0727991
-0.0564544
0.0406907
0.00760757
-0.00958604
-0.00225392
0.00423238
0.000476964
-0.00134676
-0.00197781
0.00284759
-0.0634612
0.0996398
-0.0568028
0.0206242
0.0634825
0.050119
-0.0623706
0.0385286
0.0821394
-0.0485148
-0.0721531
0.0871297
-0.0850682
0.0787204
-0.0807819
0.13351
0.0612053
-0.0694349
-0.12528
0.0356049
-0.0231082
0.00581513
-0.0183117
0.0146837
-0.00593947
-0.0273653
0.018621
-0.0647073
0.0207278
-0.0304704
0.0609744
0.0107849
0.000127486
-0.0718868
-0.120627
-0.00207185
0.134648
-0.0119493
-0.103746
0.125025
0.0657791
0.00418387
-0.00425331
-0.00162592
0.00169534
-0.0763851
-0.0271232
-0.00110247
0.104611
0.0849844
-0.058319
0.0687656
-0.00860098
0.00156354
0.00675043
0.000286987
0.00349839
-0.0016753
-0.00359228
0.00176951
-0.0939232
0.0617158
0.0678493
-0.0356419
-0.0559681
0.104326
0.0563958
-0.104754
-0.0354408
0.0299981
-0.0793394
0.0179477
-0.0135009
-0.032596
0.0281492
-0.115535
-0.00422147
-0.00699539
0.126752
-0.003359
0.0027076
0.00484764
-0.00419636
-0.00425373
-0.000856912
0.00392893
0.00118177
-0.000665604
0.00492737
-0.00488798
0.000626306
-0.0314501
0.0168681
-0.0202603
0.0348422
-0.0415667
0.0384675
-0.00262414
0.00572332
0.124434
0.0157031
-0.126967
0.114785
-0.0508761
0.0512786
-0.115187
0.0302036
-0.0105808
0.0149494
-0.0345724
0.119421
-0.0170744
-0.092471
-0.00987537
0.0798903
-0.108831
0.114594
-0.0856541
-0.0314493
0.018382
0.0146443
-0.00157685
0.0296823
-0.0310165
0.0626698
-0.0613356
0.0309221
0.147114
-0.0499663
-0.12807
0.00213256
-0.00306758
0.00301948
-0.00208443
-0.0288158
0.0490406
0.121476
-0.141701
-0.0281165
0.0538834
-0.0491419
0.023375
-0.127701
-0.0500709
0.0574309
-0.0814621
0.107898
-0.111723
0.0852871
0.0684369
0.100767
-0.0667467
-0.102457
-0.0478594
0.128838
-0.122017
0.0410384
0.00354268
-0.00286485
-0.000303475
-0.000374387
-0.00804183
-0.0101197
0.0124714
0.00569009
0.0204174
-0.0348229
-0.0898885
0.00886925
-0.00111927
-0.00730582
-0.000444213
-0.0737395
-0.0268208
0.0697653
-0.00523215
0.00742698
0.000112433
-0.00230725
0.0130153
-0.0902577
-0.0166727
0.093915
-0.0429303
0.0543316
-0.00617389
-0.00522733
-0.0768097
0.0812509
-0.0702223
0.0657811
0.12284
-0.0250737
-0.10523
0.00746337
0.0894511
-0.0974749
0.0514237
-0.0433999
0.0466802
-0.0415471
-0.119207
-0.00136927
0.00338714
0.00387551
-0.00589336
0.00133988
-0.000435763
0.00263859
0.0412963
-0.117653
0.0770331
-0.0006768
-0.00175328
0.00202642
0.00185942
0.0110097
0.00596944
-0.00036306
-0.0166161
0.121677
-0.114213
-0.0297485
-0.0363593
0.0456219
-0.0330015
0.0237389
-0.0961013
0.0740581
-0.0312314
0.0532746
-0.0156809
0.0484871
-0.0468671
0.0140609
-0.0205667
-0.04214
0.0821239
-0.0194173
0.0328353
-0.0095833
0.00835814
-0.03161
0.0227459
-0.0362331
-0.0102062
0.0236932
0.00486475
0.0485473
0.0041016
-0.0575136
0.0618778
-0.0671821
0.0378543
-0.03255
0.0384817
-0.0370719
0.13826
-0.13967
-0.051674
0.0709882
0.0640916
-0.0834059
-0.0250059
0.0241723
-0.00145107
0.00228462
-0.0220911
-0.0299128
0.0288961
0.0231078
0.0615838
0.0203127
-0.0399037
-0.0419929
0.00199901
0.0180609
-0.0155273
-0.00453251
0.0189237
0.00843534
-0.00461134
-0.0227477
-0.0631626
-0.103655
0.0707166
-0.0221002
-0.0505497
0.0149068
0.0577431
0.0125314
0.000127758
0.0265476
-0.0392069
0.0124981
0.0215885
-0.0195942
-0.0144923
0.106317
-0.105302
0.0537221
-0.0547374
0.0120973
0.0394159
-0.000349282
-0.051164
0.0109448
0.108483
-0.104588
-0.000600538
-0.0665455
0.0713302
0.00521999
0.0129002
-0.0136719
-0.00444832
-0.0330447
0.022885
0.0213908
-0.0112311
0.0492616
-0.0317459
-0.0413358
0.0238201
0.0936936
0.00624754
0.0745524
-0.174494
-0.0239467
-0.12547
0.0256883
0.123728
0.0522774
-0.00594162
0.00614936
-0.0524852
-0.0444949
0.0656884
-0.0721802
0.0509868
0.00152722
-0.00775951
-0.000647306
-0.00153744
0.000601613
-0.00149053
0.00242642
-0.109174
-0.0285341
0.108693
0.0290149
-0.104871
0.149198
0.012738
-0.00231026
0.0033004
0.00230393
-0.00329404
-0.00433965
-0.00185136
-0.0444889
0.0506797
0.0461927
-0.0811182
-0.0141975
0.049123
-0.0262799
0.135656
-0.164142
0.0547661
-0.0924012
0.00783049
0.092357
-0.00778637
0.0282471
-0.0323719
0.00429732
-0.000172564
0.112358
0.019977
-0.131434
-0.000900795
-0.0793023
-0.0508258
0.0839772
0.0461509
-0.114313
0.154805
-0.0494746
-0.0782956
0.0207034
0.0805622
-0.0229699
-0.00282323
0.0386172
-0.00276261
-0.0330314
0.0319583
-0.0266401
-0.0255482
0.0202299
0.144182
-0.0359658
0.0200026
-0.128218
-0.060856
-0.0547654
0.0430269
0.0725945
0.0747178
-0.0984676
0.0924707
-0.0687209
0.146437
-0.036278
0.00883528
-0.118995
-0.00447879
0.0442997
0.0451579
-0.00477443
0.00193104
-0.0423145
-0.00389568
-0.0126108
-0.000264937
0.0167715
0.0398482
-0.0409233
-0.0410763
0.0421515
0.027917
0.118171
-0.103204
-0.00205158
0.000660172
0.000954545
0.00043665
-0.031527
0.057697
-0.135344
0.0217276
-0.0342017
0.018109
-0.00563491
0.0971507
0.0994247
-0.0933155
-0.10326
0.0217408
-0.0170329
-0.0626634
0.0579555
0.0290318
-0.0827239
-0.0184424
0.0721345
-0.00797488
-0.0730121
-0.00985085
0.0908378
0.086981
-0.0586227
0.0588973
-0.0872556
-0.122292
0.133353
0.0198607
-0.0167778
0.0859105
-0.0827701
0.0136375
0.0111859
0.0507975
-0.04787
0.025806
-0.0262443
-0.0195292
0.0199675
0.0276616
0.0206678
-0.0253933
0.0695014
-0.042229
-0.0605953
0.0333229
-0.0762047
0.0561697
0.0357081
-0.0156731
-0.0895322
0.101371
0.081842
-0.0936804
-0.000353545
-0.0190949
0.00554234
0.0139061
0.106265
0.0535854
-0.052384
-0.107466
-0.0489092
0.0378445
-0.00721926
0.018284
0.00314421
-0.0876663
0.0842203
0.0003017
-0.00281994
-0.000395268
-0.000717237
0.00393241
-0.10274
0.00134319
-0.00118329
0.10258
0.00506615
0.0203489
0.00390009
-0.0293151
-0.0282408
0.0864466
-0.128112
0.0699063
0.0257361
-0.0632783
-0.0243823
0.0619245
-0.0933384
0.0592046
-0.0190644
0.0531982
-0.0767251
-0.021087
0.0453278
0.0524843
-0.0862574
0.0682372
-0.0339527
0.0519729
0.137232
-0.0814293
-0.164437
0.108634
-0.0416996
0.0456526
0.0434547
-0.0468913
-0.00246939
0.0691384
-0.0197777
-0.167516
0.0444779
0.12494
0.0125746
-0.0205494
-0.0283474
-0.0703211
-0.0162094
-0.00166366
0.0682779
0.142831
-0.10734
-0.103769
-9.68054e-05
-0.0038064
0.00485808
0.0204366
-0.0162704
0.0235455
-0.0580556
0.00111029
0.0384347
0.0185106
-0.0141049
0.044711
0.012087
-0.0426931
0.0810682
0.0823322
-0.10976
-0.0536408
-0.0342265
0.0381908
-0.0184783
0.014514
0.0379953
-0.00998435
0.0234093
-0.0514202
-0.0354722
-0.0161327
0.033109
-0.000541721
-0.00343091
0.000889692
0.00308294
0.0814393
-0.143009
-0.0444086
-0.0337835
0.0272491
0.050943
-0.0191304
0.0377754
-0.0868069
0.0681618
-0.0088917
0.0511276
0.0657784
-0.0634942
-0.0534118
0.107724
-0.0906575
0.0523829
0.011273
-0.0181981
-0.00735412
0.0188328
-0.118479
-0.00270045
0.102347
0.0789186
0.0693563
-0.0564781
-0.00208995
0.00467697
-0.00405411
0.001467
-0.102184
0.0781413
-0.0336232
0.0576656
-0.0778929
0.114894
-0.061945
0.0249434
0.0311421
-0.132007
0.113231
-0.0123664
0.0541138
0.0358055
-0.0191655
-0.0707538
-0.0633962
0.00111493
0.0298776
0.0324036
-0.0020523
0.000774328
-0.103267
0.104545
-0.0226105
-0.0153872
0.0179866
0.0200111
-0.00550597
0.0120686
0.0187908
-0.0253533
0.0827704
0.00339458
0.0228892
-0.109054
0.00569424
-0.0106112
0.0057635
-0.00084664
0.0975151
-0.0638359
0.051376
-0.0850551
0.0394813
-0.0229627
0.0214173
-0.037936
-0.0638619
0.0270081
-0.0410391
-0.0324068
0.0301453
0.000943105
0.00131847
0.0491948
-0.0983266
-0.0381965
0.0873282
-0.0346062
-0.0136529
0.0342238
0.0140353
-0.0487108
-0.0287871
0.00686381
-0.0226634
0.00469651
-0.0144399
-0.149189
0.00247012
0.122773
-0.000929087
0.00190032
-0.0594071
0.0584359
0.00473856
0.00466865
-0.000791437
0.0685013
-0.0634592
0.076026
-0.0398228
0.0184518
0.041602
-0.0202309
-0.000738574
0.00133186
0.00029492
-0.0430499
0.0478594
-0.0174704
0.012661
-0.116402
0.0549422
0.0965744
-0.0351143
-0.023957
0.0197342
0.0159495
-0.0117267
0.125324
0.0481638
-0.0154295
-0.158058
0.00267916
-0.00169294
-0.000986186
0.15354
-0.0331673
-0.0257007
-0.0946716
-0.0526248
0.0400057
-0.00165464
0.0142736
0.051786
-0.0458332
0.0487551
-0.0547079
0.0138337
-0.00917936
-0.0167524
0.00556223
-0.00174462
-0.00853453
-0.0079832
0.00667343
-0.00607209
0.00738187
-0.0626634
-0.0607041
0.0723931
0.0509743
0.0407629
-0.0401572
0.0211267
-0.00600116
0.124556
-0.139682
-0.04495
0.0347573
0.00975382
0.000438833
0.000223132
0.00299068
-0.00206917
-0.00114458
0.066563
0.0466331
-0.0867895
-0.0264066
-0.0833158
-0.0542793
0.0593069
0.0782882
-0.13314
-0.00631585
0.0408035
0.0986528
0.00364425
-0.00182522
0.00374309
0.0225277
0.0249775
-0.031759
-0.0157462
0.0476436
0.0504771
-0.0502784
0.0867007
-0.0922853
0.0936497
0.00698693
0.00306064
-0.0104011
0.141388
-0.0487887
-0.143732
0.0511319
0.0543365
-0.0681245
0.0131874
-0.0012838
0.00303215
-0.0032615
0.00151313
-0.0772755
0.109922
0.0217593
-0.0544055
0.0118704
-0.0152298
-0.0949393
0.0982987
0.0550502
-0.0705985
-0.0719858
0.0875341
-0.0260757
0.00967829
0.0245651
-0.0081677
0.0335222
-0.0924895
-0.0497369
0.108704
0.0288087
-0.0274689
-0.0097398
0.00839999
0.0162601
-0.0177202
-0.0419099
0.04337
-0.0424535
0.0616267
0.0562481
-0.0754213
0.00561155
-0.00525248
-0.00497051
0.0046114
0.0366206
-0.0467487
0.0295747
-0.0194465
-0.0625392
-0.024106
0.0780243
0.0086209
0.0184028
0.0436089
-0.0427774
-0.0192344
0.0161218
0.0474659
-0.0451849
0.0660183
-0.0560443
-0.0448894
0.0349154
-0.06329
0.0673375
0.0729276
-0.0769751
-0.0599086
-0.0109587
0.0641355
0.00673183
0.0183815
-0.0379696
0.0688497
0.00277546
0.0608673
-0.0532278
-0.0104151
0.0103527
0.0167834
0.0453374
-0.0724735
-0.0286674
0.0251816
-0.0328735
-0.0735994
-0.0756808
0.0758297
0.0734506
0.0718409
0.0679639
-0.100769
-0.0390363
-0.0904076
0.0894272
0.0712446
-0.0702642
0.049025
-0.0575014
-0.00233917
0.0108156
-0.0673768
-0.0818846
0.0730566
-0.0030026
-0.00111456
0.00283335
0.0688801
0.0834673
-0.111989
-0.0651764
0.0494187
-0.0228112
0.0385689
0.0533321
-0.0266459
-0.0841058
0.0574196
-0.0756163
0.01697
0.0818909
-0.0232445
-0.0410429
-0.0207516
0.042487
0.0193076
0.0129028
-0.132585
-0.0352649
0.132736
0.036912
-0.0282601
-0.0721281
0.0384575
-0.0386925
0.068033
0.0638499
-0.0674005
-0.0644824
-0.0550324
0.0519936
0.0143929
-0.0182256
0.0326637
-0.028831
0.00367336
-0.00543106
0.0334541
-0.0316965
0.123584
-0.0206043
0.0609106
-0.0538172
0.144307
0.0433342
-0.133824
-0.0115604
-0.0103315
0.0133934
0.00849853
0.0848939
0.0954434
-0.0770195
-0.103318
0.0177408
-0.00404463
0.00112586
-0.0148221
0.126393
-0.0551202
-0.160979
0.0897061
-0.0687124
0.0290787
0.0602631
-0.0206296
0.118921
-0.00939886
0.0249065
-0.00141315
-0.0229681
-0.00789707
0.0322784
-0.0453493
0.0365078
-0.0169623
0.0258037
0.013384
-0.00902007
-0.00552061
0.00115662
0.18377
-0.037852
-0.153933
-0.15043
-0.0418724
0.0331449
-0.0589599
-0.00944589
0.0703472
-0.00194143
0.0374883
-0.0452898
0.00800494
-0.000203424
0.00436258
0.0375969
-0.00613929
-0.0358205
-0.00277038
0.00244891
-0.00112168
0.00144319
-0.00845839
-0.0102564
0.0131494
0.00556537
0.0071603
-0.0130954
0.0137497
-0.0728229
-0.111422
0.136156
0.00118756
-0.00325886
0.00343271
-0.00136155
0.0373936
0.0327152
-0.041394
-0.0287148
0.0134494
-0.00600539
0.0102967
-0.10567
0.119813
-0.00227195
-0.0676459
-0.00972665
0.00705148
0.013183
-0.0350079
0.0606101
-0.0387852
0.00684095
-0.0123592
-0.00269686
0.00821497
0.00691133
-0.0548677
-0.103299
0.108801
-0.114768
0.041093
-0.0351265
-0.035768
-0.0447808
0.0473094
0.0332393
-0.0661403
0.0763448
0.00105432
-0.0521428
0.05345
0.00470836
-0.00601556
0.0583489
0.0093922
0.0026185
-0.0703595
0.00273179
-0.000465222
-0.00270273
0.000436162
-0.0554582
0.0581708
0.0116803
-0.0045514
-0.0728951
0.0228734
0.054573
-0.0349017
-0.134377
0.00176197
0.064749
-0.040039
0.072805
0.033376
-0.0463442
0.110275
-0.0973065
0.0315751
-0.000155148
-0.0430272
0.0116072
0.0178672
0.083612
-0.0821322
-0.019347
0.0546314
-0.0511999
-0.0874324
0.084001
0.0521911
0.0960553
-0.0254061
0.0704043
-0.0634146
0.0729006
0.089144
0.0160064
-0.00139889
-0.103751
0.0274307
0.0159557
-0.0244815
-0.0189049
0.104233
-0.03637
-0.00672828
-0.0611349
0.0118283
-0.0277184
-0.137865
0.0625797
-0.0171199
0.0924049
0.0439235
-0.0665093
-0.0482608
0.0708465
0.147457
-0.0244634
-0.107588
0.000213581
0.00266774
-0.00288121
-0.00803514
0.0584301
-0.0571656
0.00677065
-0.0134538
-0.0490393
0.0221701
0.0403231
0.0498699
-0.0464618
-0.0974253
0.094017
-0.0871552
0.0457817
0.0922241
-0.0508506
0.0421027
-0.0633978
-0.104466
0.125761
0.120142
0.0284614
-0.121868
-0.0267354
0.0293414
-0.0930193
0.00021672
-0.0729638
-0.0101626
0.0687679
0.0143585
-0.110546
0.0791156
0.0167099
-0.00128769
0.0015456
-0.0020965
0.00183866
-0.00644774
0.010152
-0.00875819
0.00505392
-0.107715
-0.0576893
0.105033
0.0603718
0.0063646
-0.00557783
-0.00905681
0.0082701
0.0245715
-0.0169968
0.0127528
-0.0203274
-0.0623986
0.0311765
-0.0208228
0.0520448
-0.0856312
0.128145
0.0419107
-0.0844246
-0.101198
0.0823598
0.11497
-0.0433193
-0.0162411
0.0454556
-0.00358922
0.0376719
0.0754242
-0.109507
-0.0116997
0.059354
-0.0339993
-0.0136549
-0.0319003
-0.0291487
0.0554862
0.00556277
0.0172146
-0.017017
-0.0234127
0.0232152
0.00763633
-0.0435078
0.0455762
-0.00970465
0.0309003
-0.0159442
-0.0451548
0.0301987
0.0185883
-0.0338301
0.135384
-0.106673
-0.0082565
0.0500508
0.0835335
0.118648
-0.120415
-0.0817663
0.115793
-0.00288786
-0.131625
0.0187203
-0.0259509
0.0257526
0.0321566
0.0196144
0.0229843
-0.0163032
-0.0262956
0.0405334
0.153971
-0.0920563