/*--------------------------------*- C++ -*----------------------------------*\
  =========                 |
  \\      /  F ield         | OpenFOAM: The Open Source CFD Toolbox
   \\    /   O peration     | Website:  https://openfoam.org
    \\  /    A nd           | Version:  7
     \\/     M anipulation  |
\*---------------------------------------------------------------------------*/
FoamFile
{
    version     2.0;
    format      ascii;
    class       volVectorField;
    location    "350";
    object      U;
}
// * * * * * * * * * * * * * * * * * * * * * * * * * * * * * * * * * * * * * //

dimensions      [0 1 -1 0 0 0 0];

internalField   nonuniform List<vector> 
11372
(
(12.1468 1.90484 0)
(-0.474284 -1.13921 0)
(7.35544 -2.64797 1.25616e-17)
(-1.97288 -0.318964 1.53564e-20)
(11.0256 0.243916 0)
(-0.601207 -1.1751 0)
(11.7149 1.31499 -2.30801e-18)
(12.785 1.43615 -7.79389e-18)
(11.6323 1.83044 0)
(5.94957 5.7223 0)
(11.4741 0.952075 -1.95537e-19)
(6.47306 2.41316 1.06934e-18)
(12.4964 -2.45422 -1.65031e-18)
(10.7317 1.47527 1.97533e-19)
(8.12686 -0.33263 0)
(-1.88137 -0.111612 5.88911e-18)
(12.2506 0.668058 6.28635e-18)
(11.8304 1.98557 -2.59373e-18)
(9.73932 1.93652 -7.09425e-19)
(9.67284 1.00236 -6.88917e-18)
(2.17284 0.49845 -6.2458e-18)
(10.6925 0.502964 3.03856e-18)
(8.27374 -8.82222 6.41515e-19)
(0.997818 0.420571 1.93021e-17)
(11.7012 0.552862 9.46115e-19)
(6.75729 1.39402 -3.23727e-19)
(-0.830177 -0.488857 -1.95649e-21)
(10.347 2.16927 -2.87931e-19)
(9.86225 0.874796 9.09891e-18)
(9.7884 0.991644 0)
(9.64208 1.75764 -1.91042e-18)
(9.95436 0.855007 -5.05504e-20)
(11.1842 0.103847 -2.50878e-18)
(10.7436 1.73437 -2.19727e-19)
(3.19157 1.89377 -2.75173e-20)
(10.2432 1.16889 -2.68565e-19)
(11.0124 0.679144 2.0833e-18)
(11.0324 1.77527 2.75789e-18)
(12.0499 0.365564 -4.84812e-18)
(11.6351 2.9189 -1.13743e-17)
(12.896 1.6227 1.27808e-17)
(9.88973 0.867163 2.59056e-18)
(10.772 1.21157 0)
(6.0196 -0.0736732 -6.02193e-18)
(10.2358 0.196162 7.60313e-18)
(12.4336 1.68244 -5.09984e-18)
(11.4315 -0.13215 -1.33827e-18)
(1.99138 0.912571 -4.63131e-18)
(-0.520999 -1.98986 -5.73997e-18)
(11.1085 0.357441 -2.69901e-18)
(8.18236 0.94401 3.77782e-18)
(11.573 0.951685 -6.76461e-18)
(5.99926 -5.08915 5.77777e-18)
(9.36163 -0.390407 7.97004e-18)
(9.82533 1.69215 0)
(11.4111 1.71486 -3.01172e-18)
(5.86617 1.79006 1.52121e-17)
(-0.457636 -1.65732 -1.15737e-17)
(11.1309 0.320946 -4.69196e-19)
(7.01681 0.208714 0)
(12.2134 -4.02544 -2.69483e-18)
(8.40344 -0.591238 0)
(10.3488 1.2327 4.14885e-19)
(-0.217085 1.01293 -1.95859e-17)
(6.4567 1.92243 -5.21639e-19)
(10.4836 1.2649 -1.4249e-18)
(12.308 2.0709 3.27504e-18)
(-1.73057 -0.353468 -3.47425e-18)
(7.05615 -4.89935 8.57177e-18)
(1.86983 0.574901 0)
(10.8315 0.419963 -1.69555e-18)
(11.2522 1.04138 -2.17291e-18)
(10.9615 0.822317 -2.52271e-20)
(11.5521 0.532478 3.03428e-18)
(12.4889 2.77873 3.3815e-18)
(9.92719 0.905029 5.78992e-20)
(-2.22478 -0.273137 -3.99938e-18)
(10.5625 1.98555 6.44501e-19)
(9.94316 0.811676 -7.00335e-18)
(13.689 2.6228 0)
(-2.40627 -0.228388 -4.85522e-18)
(3.7026 -5.67013 -8.33005e-19)
(0.726312 -2.36136 -4.51463e-17)
(8.92064 -3.57464 -1.68743e-18)
(16.2249 -1.2353 -6.26608e-18)
(11.2485 8.87762 6.51547e-18)
(10.1419 1.14799 0)
(11.4338 1.72615 -1.71388e-20)
(8.92912 0.747737 -3.47385e-18)
(13.1333 4.6849 -7.81386e-18)
(10.9014 0.688304 -1.70774e-18)
(10.213 -0.759966 -9.98311e-20)
(-1.00016 -1.05562 0)
(9.57358 -2.83867 1.29598e-18)
(10.4921 0.0368263 3.3165e-18)
(3.54517 1.15325 1.18176e-18)
(12.3507 1.18784 1.60751e-17)
(1.45443 1.01124 -2.46741e-19)
(-0.403231 0.414 8.93935e-18)
(10.4292 1.34123 1.43099e-18)
(10.0305 0.448751 3.67285e-18)
(8.36082 -0.221166 9.43637e-18)
(9.92034 0.599746 5.59056e-18)
(10.988 0.459921 8.95852e-19)
(9.72114 0.352489 -6.15299e-18)
(1.90212 2.34207 1.38698e-17)
(-0.256325 -1.24038 -1.52881e-17)
(9.87046 0.59745 -1.4925e-17)
(10.3345 1.48989 -3.48531e-19)
(9.11043 0.71248 0)
(10.3047 1.97962 -6.90538e-19)
(8.79703 0.253786 1.93805e-18)
(8.968 -6.90546 -5.05344e-19)
(9.81329 1.22617 -7.10989e-18)
(-0.895991 0.28806 8.46248e-18)
(10.0702 0.454025 -4.64566e-19)
(13.0842 0.522882 2.62613e-18)
(9.99983 1.13582 0)
(10.7681 1.47864 0)
(-0.570161 -0.47756 -8.61164e-18)
(-0.451707 0.274894 2.74849e-18)
(12.8506 1.1182 2.08652e-17)
(2.28621 -0.0937831 4.80122e-18)
(10.1532 1.55323 1.32218e-18)
(7.39232 -0.386128 3.07236e-18)
(9.7625 0.921698 3.16208e-18)
(11.7156 0.899978 1.85209e-18)
(12.6678 0.597913 5.71487e-18)
(10.8753 3.03162 -3.04664e-19)
(13.133 2.21084 -6.72386e-19)
(12.1931 1.64858 -1.45247e-17)
(11.4083 3.50757 8.05957e-19)
(-0.883548 -0.734611 -2.08626e-17)
(12.7153 -1.19146 1.06906e-18)
(12.3624 0.883331 0)
(11.0581 1.06458 7.60937e-18)
(11.691 1.83226 -4.67606e-18)
(2.31542 -0.819038 -6.38237e-19)
(1.76225 4.20285 -1.27704e-17)
(9.88809 0.620256 0)
(6.45512 -0.543564 1.02785e-20)
(9.93347 0.909545 0)
(3.24517 0.433737 5.97151e-18)
(8.62804 -4.95358 -1.57369e-18)
(11.0153 0.25342 -5.07883e-20)
(12.7024 1.19725 -6.67711e-20)
(-1.68442 -0.53565 4.26379e-18)
(9.53858 2.02193 0)
(9.67179 1.61761 0)
(12.654 0.519523 5.33622e-18)
(10.6446 0.0755752 -1.62144e-18)
(10.8206 7.13762 1.7896e-18)
(11.9638 0.0368031 4.34726e-18)
(-0.905837 -0.904441 0)
(10.0157 1.50442 -3.68795e-18)
(10.4855 0.730494 -3.54305e-19)
(11.5686 1.51351 -2.85452e-18)
(11.3043 1.41339 -3.97091e-18)
(0.837885 0.865628 0)
(9.67211 0.277874 -1.70236e-17)
(11.2159 0.537211 1.8546e-19)
(11.0095 0.470664 0)
(13.0128 1.72163 7.58789e-18)
(9.95012 0.853801 2.14374e-17)
(-1.03973 1.78187 4.10946e-18)
(11.8794 -1.09598 0)
(12.5938 1.99572 6.13662e-18)
(-2.11145 -0.030091 0)
(10.9574 0.55357 1.76316e-18)
(10.6307 0.927486 -5.04003e-20)
(-0.525545 -0.445153 4.09778e-18)
(10.4718 0.507322 0)
(8.01621 0.24689 -6.61903e-18)
(12.4481 3.31708 -6.63155e-18)
(10.8067 2.25868 1.65565e-17)
(13.3763 5.02019 1.82055e-19)
(9.63806 2.8724 0)
(-0.665838 0.0219378 3.68443e-20)
(13.9538 4.21708 4.35071e-18)
(9.95073 0.406857 -6.84031e-18)
(9.21969 -3.5238 -2.46794e-19)
(9.57241 1.1279 1.47049e-17)
(12.6365 6.66051 -1.83069e-17)
(9.55236 1.50682 -2.84263e-18)
(0.978735 0.0270389 0)
(11.3774 0.542957 1.36203e-18)
(6.86486 4.02279 0)
(13.1597 2.26381 2.98195e-18)
(8.32892 0.318416 0)
(-0.600767 -1.84835 -7.16953e-20)
(10.85 0.394479 -2.61372e-19)
(9.77568 1.30739 0)
(8.19163 0.695032 2.7383e-17)
(11.9074 1.12803 -4.50073e-18)
(12.5147 0.475905 6.05057e-19)
(11.9468 0.739026 1.47756e-18)
(-1.57794 -0.310613 1.0063e-17)
(9.79561 0.938248 4.01366e-19)
(12.892 4.15632 1.8732e-18)
(11.8197 2.55634 -1.75045e-18)
(9.77736 1.06441 -9.94635e-18)
(9.1665 0.724176 -1.763e-18)
(9.46954 0.793424 0)
(0.632817 0.225763 4.7949e-18)
(10.3114 1.67605 0)
(11.3469 1.27025 4.27029e-18)
(10.4362 0.401467 -1.53569e-18)
(11.5896 1.12769 -9.26605e-19)
(11.5494 1.68653 1.69369e-19)
(8.02773 1.86829 1.24952e-18)
(14.0436 -0.211641 -2.04401e-19)
(11.3863 1.28405 -1.91074e-18)
(10.9283 1.73038 0)
(9.70659 0.881143 -5.67411e-18)
(9.83856 0.615115 0)
(9.80989 -0.202024 1.24626e-17)
(9.86 0.846872 -1.90363e-17)
(9.62151 1.05663 2.55689e-20)
(11.324 0.853693 6.77676e-18)
(-1.82766 -0.198882 1.11711e-17)
(10.9718 1.60966 -3.16339e-18)
(9.66894 1.09477 -7.71344e-18)
(1.65968 -2.40928 1.9448e-17)
(-0.268564 1.11999 -5.38938e-17)
(9.8614 0.625088 5.68124e-18)
(9.94831 5.66259 9.34231e-19)
(-1.06816 -0.897512 2.10729e-19)
(10.7367 0.619898 -1.42173e-18)
(9.87014 0.509916 0)
(10.3592 -0.6312 -3.90233e-18)
(9.73675 2.51539 -3.14601e-18)
(9.86455 1.7041 2.51714e-18)
(12.4247 2.18115 -3.65255e-18)
(10.621 1.39431 -3.12164e-19)
(6.44435 0.881217 5.38425e-19)
(-1.18401 0.493258 6.09653e-18)
(12.8985 2.50432 0)
(4.96339 1.29406 3.27257e-19)
(9.71597 -0.289494 -3.57533e-18)
(11.6273 -2.20349 2.68115e-18)
(9.95601 0.859521 -1.51917e-17)
(13.7386 3.10944 3.24348e-18)
(9.66679 -2.55465 5.02038e-18)
(10.1393 1.33399 3.29707e-18)
(8.93754 -3.26836 1.48136e-18)
(10.4152 2.02882 0)
(9.61251 1.59345 9.22194e-18)
(10.4416 2.22763 5.30134e-19)
(9.95512 1.97004 -6.87462e-18)
(12.8476 6.32869 -9.84428e-18)
(10.6853 -0.879053 -4.48168e-19)
(10.587 0.510799 -4.24806e-19)
(16.9519 6.98524 1.60164e-18)
(10.9948 1.74793 -1.29286e-18)
(13.5694 2.32288 -7.69764e-18)
(9.44527 0.212042 4.11638e-18)
(4.95137 -0.00594199 -3.93392e-18)
(10.0185 1.19636 -1.40623e-18)
(8.95806 2.31473 4.61746e-20)
(10.1642 -0.0311675 1.43517e-18)
(12.8136 1.83679 -1.11936e-18)
(9.91056 0.901258 -2.28954e-18)
(5.55437 1.85675 6.55509e-18)
(9.7742 0.633717 3.31638e-18)
(6.58905 -2.9174 -5.95188e-18)
(11.9559 2.08418 3.97255e-18)
(9.45745 2.13022 0)
(2.13238 -0.149303 -6.12276e-18)
(0.856255 4.13637 2.55117e-17)
(12.0411 -0.0656867 0)
(0.374754 0.897461 -2.07164e-17)
(11.9398 1.9342 6.47594e-18)
(9.65761 4.17718 -2.57647e-19)
(12.2599 0.959886 0)
(12.0142 0.469409 0)
(1.88232 0.567165 0)
(10.0985 -0.0150089 -1.25056e-18)
(10.2613 1.21203 2.84594e-19)
(10.2532 -0.554321 4.19204e-18)
(7.87483 1.35453 -6.70148e-19)
(11.1966 0.210652 1.99725e-18)
(10.0544 -0.871506 0)
(9.58698 0.161327 0)
(10.2061 -0.238937 -1.75127e-18)
(11.2557 1.05863 -2.7573e-19)
(10.5791 1.36463 1.35923e-20)
(0.584457 -0.0189093 7.37367e-18)
(-1.28791 1.76904 -6.98496e-17)
(10.4608 1.22744 1.7391e-18)
(5.84962 1.89571 3.35431e-18)
(1.03361 -0.168268 0)
(9.85156 1.04255 4.98593e-18)
(-1.26 -0.489891 1.19029e-17)
(10.3877 0.438889 -1.69893e-18)
(1.54736 0.583657 -3.61272e-18)
(10.0884 1.70287 -8.4148e-18)
(2.29994 0.112239 0)
(9.92236 1.14311 5.64453e-18)
(11.0621 -2.20674 -4.06176e-19)
(-1.19046 0.0439256 -5.40882e-18)
(9.94459 0.893024 8.20176e-18)
(13.0488 -0.100435 0)
(2.83864 1.9711 -1.73598e-17)
(5.93674 1.50945 2.62558e-18)
(11.0078 0.426023 -7.99424e-19)
(11.8899 1.52641 -4.35478e-18)
(3.78832 -4.95335 1.45467e-17)
(11.0989 0.325951 0)
(9.94523 0.850386 3.86044e-18)
(11.4537 0.78305 0)
(7.50911 -6.32283 -2.80623e-19)
(9.94539 0.80462 2.16905e-17)
(-1.07056 -0.487334 -7.65995e-18)
(15.469 -0.415664 2.50797e-18)
(10.1784 0.476238 -3.38906e-18)
(10.0116 2.24756 -6.02561e-19)
(1.55568 0.16331 -1.56165e-17)
(12.2082 -1.05901 3.58314e-18)
(12.1217 1.8982 -8.67857e-20)
(13.4275 1.97101 -6.07843e-18)
(10.1237 3.31973 -1.68477e-19)
(-1.63176 -0.365467 0)
(11.2105 0.114404 -1.684e-18)
(9.69258 0.773476 0)
(9.75559 1.0901 1.54904e-18)
(6.37387 0.841643 1.4429e-20)
(12.8549 0.614523 0)
(8.5955 -1.85916 0)
(10.2395 5.52283 2.12415e-18)
(11.702 1.15558 -4.80643e-19)
(2.55648 1.1144 -8.10349e-18)
(9.79586 0.966978 6.51778e-18)
(6.62087 5.28395 0)
(12.8749 1.30656 -5.15178e-18)
(11.1439 -0.355068 -3.17378e-20)
(12.4147 2.70127 -5.08108e-18)
(10.7401 0.482534 5.31069e-19)
(-0.37088 1.16606 0)
(10.2653 2.37547 4.31145e-18)
(11.4295 2.61245 1.78613e-19)
(-1.73414 0.23591 0)
(6.96663 -0.717799 0)
(10.3753 -0.386628 0)
(11.1873 1.3095 5.58032e-18)
(10.4649 0.695766 1.06895e-20)
(11.0333 0.113554 5.432e-19)
(10.8043 1.19553 4.16717e-18)
(11.4527 1.37212 0)
(7.27381 0.714497 3.76129e-18)
(9.95804 0.872383 7.59363e-19)
(3.31491 7.02829 -2.26333e-18)
(12.2399 1.94981 3.11747e-19)
(8.58714 0.822134 1.40552e-18)
(8.01241 -1.34238 5.93597e-18)
(9.72998 0.034502 8.02398e-18)
(13.0454 1.49242 4.99735e-18)
(6.01684 1.07515 2.21303e-17)
(8.78459 0.579862 -3.55998e-18)
(11.0799 1.9492 -2.23555e-18)
(9.80276 1.13425 0)
(10.5812 1.12758 0)
(11.89 0.995165 2.58699e-18)
(9.59449 -0.414367 1.65479e-19)
(9.53113 1.63707 -7.5908e-19)
(10.1475 0.523743 -3.21325e-18)
(-0.965124 1.32299 3.00343e-17)
(12.259 2.31194 -5.43673e-18)
(5.01659 2.23177 0)
(8.08281 2.17366 1.329e-17)
(9.66514 0.667105 4.11293e-18)
(9.74533 0.724002 0)
(11.6423 0.30797 -2.0941e-19)
(-1.37293 -0.0760309 1.8133e-17)
(-1.90085 -0.451504 4.15458e-18)
(10.0323 3.98437 4.48058e-19)
(7.81421 2.1052 -2.69004e-18)
(6.24075 0.18628 -5.52767e-18)
(9.85166 0.678362 -1.05621e-17)
(13.0191 1.47919 -1.69114e-20)
(6.07743 0.80054 0)
(10.5907 1.58253 -6.34715e-19)
(9.7566 0.94932 -3.11734e-20)
(11.285 -0.132014 0)
(11.9508 1.36557 0)
(10.0583 -0.229109 0)
(6.20344 7.00826 -1.44569e-18)
(-0.875997 -0.956556 5.82426e-18)
(10.3222 2.80967 1.50813e-19)
(12.6794 0.780648 1.95965e-19)
(11.2441 1.62095 4.78344e-18)
(4.32602 0.117412 2.79017e-18)
(0.893065 0.410399 6.26801e-18)
(10.0602 1.46603 -3.19936e-18)
(11.5186 1.62749 5.36757e-18)
(10.0685 1.1932 1.66826e-18)
(11.5669 1.37981 2.99088e-19)
(10.641 0.497577 0)
(15.9424 3.80907 0)
(9.96091 -5.84927 0)
(12.8546 0.530051 3.51575e-18)
(9.11535 0.461237 7.19199e-19)
(10.8815 0.843961 -6.25806e-19)
(10.9789 1.72588 -8.20244e-19)
(-1.66397 -0.572063 -5.39494e-18)
(11.3568 0.353581 -1.36614e-19)
(10.7562 1.20074 -1.66189e-18)
(3.24817 -0.0764567 -8.02261e-18)
(0.654104 -0.368159 2.91797e-18)
(11.5925 0.98295 8.54209e-19)
(11.2923 0.512515 3.31435e-18)
(9.95515 0.447434 0)
(3.55547 -0.103486 -5.8554e-20)
(11.0681 0.519299 3.54684e-19)
(-0.733155 -2.09246 -1.3714e-17)
(-1.0033 1.1659 1.38747e-17)
(-0.829664 -1.91661 6.72387e-18)
(10.275 0.964254 1.78551e-17)
(9.56207 -1.87903 0)
(10.1157 0.885739 0)
(11.1563 0.785426 -1.60082e-18)
(4.08178 -0.791979 7.09613e-18)
(10.7104 0.787262 8.92994e-19)
(9.95075 0.69458 3.65888e-18)
(8.35224 10.2871 1.59145e-18)
(9.75784 1.7876 -4.43081e-18)
(9.93002 0.913917 -1.37205e-17)
(-0.819777 1.29359 6.37957e-18)
(11.1135 1.86302 -3.31184e-18)
(8.87524 1.51969 -2.92125e-18)
(9.94952 0.816059 1.41978e-17)
(10.8276 1.46139 0)
(10.5567 0.457576 -9.53467e-19)
(10.4112 0.614098 1.94009e-19)
(-1.11603 -1.53379 1.08332e-16)
(1.71362 1.02714 -3.45812e-18)
(10.117 1.32127 0)
(1.02799 0.812386 -4.01112e-18)
(9.69229 1.02581 6.78825e-18)
(2.69276 -0.0482288 5.2386e-18)
(11.7424 0.652066 2.18709e-18)
(11.6305 4.82251 -1.89604e-18)
(10.9372 1.63341 5.41052e-18)
(9.93498 0.681724 4.37983e-18)
(11.5454 0.839482 0)
(10.3646 0.428714 -2.79745e-18)
(-1.98264 0.0793472 -5.19761e-18)
(-1.1195 -1.43463 -3.01893e-17)
(9.86034 0.817901 3.82951e-18)
(-0.560221 1.11767 6.15639e-18)
(5.43075 0.492458 -8.75415e-18)
(10.3968 0.741956 -1.28111e-19)
(13.259 -1.79954 2.53526e-19)
(11.5784 0.706401 -6.18822e-18)
(8.61914 1.79441 3.65172e-18)
(12.5717 0.0894073 0)
(8.45055 0.035514 -3.23085e-18)
(4.28021 -0.874964 -3.57627e-19)
(13.1438 0.35735 8.44851e-18)
(9.81315 0.326061 0)
(10.9296 0.350614 -2.09353e-19)
(6.07576 1.00937 1.04347e-18)
(6.73062 1.52926 9.84877e-18)
(10.1339 0.32383 1.30939e-17)
(11.3207 -2.12317 2.59167e-18)
(3.89761 -0.104771 -2.11004e-19)
(5.54978 6.19946 0)
(11.5493 0.763619 -4.99529e-18)
(12.916 0.827294 1.29929e-18)
(3.97625 1.51328 4.17601e-18)
(8.63286 -3.0044 0)
(11.2932 1.58382 -3.61599e-18)
(8.02503 1.62394 -1.52421e-19)
(9.75439 0.889564 -2.87281e-18)
(11.0649 1.88205 0)
(4.51458 1.62493 0)
(7.77521 4.25371 4.98191e-18)
(12.4338 -1.64366 2.74002e-18)
(10.6805 0.488857 1.0068e-19)
(10.7675 1.11975 -1.75146e-19)
(7.96414 1.99466 -6.5398e-18)
(9.70122 0.930006 1.86485e-17)
(2.15464 1.93356 0)
(-1.06585 0.588097 4.21811e-17)
(10.1261 0.47308 0)
(10.4902 1.37483 -8.93309e-19)
(-1.17596 -1.92806 -1.51162e-17)
(4.99486 -0.591159 6.50039e-19)
(12.5155 1.10156 4.01599e-18)
(10.9171 0.411488 0)
(10.2505 1.42005 0)
(8.57405 0.504043 -1.65853e-18)
(10.0701 1.11514 3.02635e-19)
(10.1834 1.74495 4.63917e-18)
(10.3549 0.564687 0)
(11.9505 1.43652 -3.17863e-18)
(8.8007 -1.6651 -2.32569e-18)
(8.26019 -0.515571 1.36572e-19)
(10.6274 1.32845 2.77296e-20)
(9.75384 1.01278 1.49649e-18)
(9.90969 0.790676 8.09102e-18)
(9.92501 0.97923 -2.09837e-17)
(12.6706 0.564294 -1.16435e-18)
(11.851 6.75473 9.23549e-18)
(2.97135 0.167176 -3.94403e-18)
(9.16635 1.32713 1.00341e-17)
(11.2424 1.39446 0)
(0.771704 -0.014115 0)
(10.1021 0.494776 -2.2419e-18)
(13.5426 0.127516 -6.45498e-18)
(11.0848 0.236073 -8.01196e-19)
(10.7271 1.43416 2.35673e-18)
(11.0614 -0.305239 0)
(12.2026 -0.284125 4.51004e-19)
(9.90518 0.641139 -1.70621e-17)
(9.93948 0.920304 1.54086e-17)
(9.98176 0.367407 0)
(8.73948 0.65204 -7.07122e-18)
(8.5858 4.36949 -5.41786e-20)
(8.14857 2.32659 0)
(11.7522 -0.526349 0)
(12.3351 1.70375 5.47092e-18)
(10.1186 0.562534 2.18707e-18)
(1.68995 -0.42458 -2.7205e-19)
(11.1777 1.5581 -3.10217e-18)
(8.80875 2.24911 6.67361e-18)
(10.317 -0.0341176 -3.85558e-19)
(-0.340932 -1.34296 0)
(10.5844 1.46142 -9.55763e-20)
(10.298 0.523769 -1.74941e-18)
(11.7874 1.08168 0)
(10.5202 2.31752 2.86095e-19)
(10.8901 1.25881 5.31281e-18)
(10.483 2.09765 6.9672e-19)
(12.1024 0.911027 3.02907e-18)
(10.8502 0.572404 1.04199e-17)
(8.43965 1.99489 0)
(10.4489 -1.57276 4.34234e-19)
(10.5566 0.672144 -7.15581e-19)
(10.3411 7.11632 -1.56994e-18)
(9.69269 1.55583 -3.21792e-18)
(11.0121 0.336838 -2.61144e-18)
(-0.966056 1.45909 -8.92882e-18)
(9.33281 -3.7632 -1.34472e-18)
(9.02804 2.1065 9.55392e-18)
(9.02502 3.7669 0)
(11.6602 1.24708 -6.13996e-18)
(9.32808 -1.37073 -6.30181e-18)
(11.1022 -1.51269 1.74138e-19)
(12.5495 6.09946 5.31076e-18)
(-0.311747 -1.34813 -7.44205e-18)
(10.4108 0.385376 2.63378e-19)
(10.874 -1.53 0)
(12.7811 0.442699 -5.16218e-18)
(9.87261 0.86049 3.29658e-19)
(10.5938 -0.304737 1.85327e-18)
(10.2677 0.207416 -1.3443e-19)
(5.34632 2.15243 0)
(9.8806 1.11167 2.3585e-18)
(11.3078 -0.0571407 0)
(-0.748692 0.368352 -4.82783e-19)
(9.94941 0.887628 -9.16349e-18)
(10.3392 1.59161 1.4976e-18)
(10.5698 0.741094 8.53142e-20)
(12.7745 -0.372875 5.87523e-18)
(5.51432 1.26174 -8.62602e-19)
(11.5114 1.15701 1.83234e-18)
(6.17503 3.82635 -2.11734e-18)
(4.48565 0.263391 4.30198e-18)
(12.3522 1.04714 -9.94067e-19)
(1.21592 -0.428887 3.81648e-18)
(10.4977 1.27001 1.13596e-19)
(10.3748 4.54512 7.07346e-19)
(10.3028 1.59747 1.38458e-19)
(11.2935 11.3114 -2.82939e-18)
(9.92588 0.344243 -4.26728e-18)
(8.50759 3.18826 7.93195e-18)
(12.1572 1.86411 4.72286e-18)
(10.2042 11.4806 7.22178e-18)
(10.8414 1.14965 5.30161e-19)
(10.1281 2.03563 -5.93202e-19)
(-2.32967 -0.203535 8.17512e-18)
(11.6818 1.30827 3.28364e-18)
(13.1926 1.99332 3.74638e-18)
(0.0307958 0.362478 1.42789e-17)
(11.7514 -2.61748 -1.80218e-18)
(10.6188 0.197981 1.50372e-18)
(5.6439 9.08134 2.05267e-19)
(10.8427 1.29048 1.90073e-18)
(-1.09042 -0.645436 -1.18281e-17)
(10.7526 0.458452 6.19755e-19)
(6.28833 -0.613815 8.53923e-19)
(11.4657 1.90158 3.88412e-18)
(1.90219 0.0941415 -3.45999e-18)
(4.71252 0.540687 0)
(-1.75818 -0.132487 7.91866e-20)
(11.635 -0.650382 3.06756e-18)
(12.0456 -1.09909 -6.99265e-18)
(11.4407 0.213707 0)
(11.6238 1.12722 0)
(0.657508 -0.668632 -1.61518e-17)
(12.3237 0.739362 3.77969e-18)
(12.1393 1.38594 0)
(9.9627 1.09536 -4.81965e-18)
(2.55565 0.731292 0)
(8.64904 4.86593 0)
(7.66939 2.0553 -1.05891e-19)
(10.4794 1.24313 4.79591e-19)
(1.08658 -0.208882 2.79654e-18)
(10.111 0.6048 2.34848e-19)
(9.21986 1.84611 7.86398e-18)
(-0.753919 -1.3939 1.5203e-17)
(10.6766 1.01315 -9.19853e-20)
(9.80256 0.771234 -6.6941e-18)
(9.96621 1.22964 3.32186e-18)
(10.2753 -6.76395 1.1988e-18)
(12.0984 0.114591 5.61934e-18)
(10.9443 -6.94848 2.96597e-18)
(10.6667 -2.12592 -8.55878e-19)
(12.391 1.0806 4.00639e-18)
(-2.11119 -0.300975 -1.43068e-21)
(12.3866 1.16224 1.0135e-17)
(12.7707 1.17896 -3.68041e-18)
(8.34201 0.983095 8.65935e-18)
(8.3295 1.09756 1.00799e-17)
(9.80514 -0.329238 3.03801e-18)
(11.4323 0.78366 -5.31068e-18)
(12.8493 0.360648 -2.03179e-18)
(12.4603 -1.4474 -2.7512e-18)
(11.5278 0.658445 1.55669e-18)
(10.4226 2.32643 -4.8105e-19)
(13.3212 -2.02824 -2.85305e-18)
(9.87535 0.924453 0)
(12.1086 1.49111 6.58562e-18)
(10.6153 0.40399 -7.84356e-19)
(12.4675 -2.82838 2.52035e-19)
(12.3581 1.60904 -1.43643e-17)
(-0.701775 -1.38226 0)
(9.9453 0.790049 -2.46639e-17)
(10.3505 3.28751 -2.35746e-19)
(11.6022 -0.313083 1.67282e-18)
(9.93103 0.231467 0)
(10.4702 -1.97686 -6.3685e-19)
(10.4756 0.531651 -1.39951e-20)
(10.1107 0.606721 4.96495e-19)
(9.69747 0.97895 8.15815e-20)
(10.3898 1.40013 6.60263e-19)
(11.4815 1.70314 3.37811e-18)
(8.4989 0.334509 -8.43988e-18)
(9.19334 0.797973 0)
(10.9793 0.424761 -6.7643e-19)
(10.9061 0.432374 -1.20781e-18)
(4.81066 -1.91516 0)
(11.3468 1.03068 3.82184e-18)
(3.91261 -7.18508 1.26541e-17)
(10.0307 1.15589 4.20035e-19)
(8.11869 -0.726509 -9.63585e-18)
(9.92471 0.896521 -9.16993e-19)
(12.0739 1.80852 -9.99751e-19)
(9.60448 -0.132341 -2.50041e-18)
(2.55807 -5.15788 -2.12343e-17)
(10.3489 0.441636 0)
(10.7573 1.56078 0)
(9.30364 0.411493 2.37261e-18)
(15.1965 -1.32531 1.15906e-18)
(4.28626 -0.696075 0)
(-0.511345 -1.51707 2.74614e-18)
(4.33515 -1.49444 9.33505e-18)
(5.12017 2.53395 -9.10499e-19)
(11.3675 1.43825 -3.87372e-18)
(-0.100266 -0.581922 -7.8142e-20)
(13.0782 -1.29165 3.43349e-19)
(4.76109 -7.48221 0)
(9.79249 0.7944 7.06309e-19)
(9.70912 1.49912 0)
(5.04977 0.832552 -1.72245e-19)
(1.90957 -0.806495 -2.70236e-18)
(10.6301 0.903289 1.53745e-19)
(10.0319 0.597344 5.15017e-18)
(9.56343 -0.291515 0)
(11.5726 -0.00374152 -3.98481e-18)
(9.64437 2.34371 0)
(10.9133 2.63436 -8.56394e-19)
(-0.39486 -0.938101 -3.35989e-18)
(10.6981 0.744102 -6.36949e-18)
(12.9463 1.14841 -2.4308e-18)
(10.53 0.640737 2.64165e-19)
(10.4918 1.2379 -3.97525e-20)
(11.4502 -0.0284968 -4.93877e-18)
(9.95507 -1.35897 2.82192e-19)
(11.8998 -0.136904 2.13794e-19)
(9.96467 0.517655 -7.98852e-18)
(9.93061 0.655335 3.98588e-18)
(9.99038 0.677022 -4.96664e-18)
(11.9448 0.500239 -1.37457e-18)
(9.49996 -2.11096 -4.46803e-18)
(11.8992 0.335805 -1.3655e-18)
(8.91102 -3.00902 -8.01062e-19)
(9.90017 0.935876 4.30384e-18)
(12.2923 1.28215 -7.87801e-18)
(10.5428 0.946622 -1.90708e-18)
(-1.01865 0.809559 -4.67364e-17)
(12.282 -0.582195 7.57841e-19)
(12.5252 4.68469 -2.1804e-19)
(11.0371 -0.170292 0)
(11.5995 0.787981 0)
(10.0232 0.601056 1.015e-17)
(9.98737 0.668305 6.43122e-18)
(10.0522 1.43522 6.54734e-18)
(10.5252 2.03275 -2.08206e-18)
(9.7996 0.621966 1.15093e-17)
(-0.849504 0.0384378 -4.01371e-17)
(3.81183 0.132216 9.22868e-21)
(10.0462 0.481953 -1.16431e-17)
(-2.47879 -0.183546 4.64445e-18)
(9.29187 -2.66899 0)
(9.44735 0.109136 0)
(10.6786 1.17348 0)
(11.1855 0.156252 2.75662e-18)
(9.14983 3.59488 0)
(11.267 0.982875 2.52308e-18)
(12.953 0.900522 1.48357e-18)
(11.194 3.40325 -1.22103e-18)
(7.57708 0.26305 6.78681e-18)
(11.2466 4.23397 2.00152e-18)
(12.9468 1.94018 3.27147e-18)
(10.0054 0.661195 -9.77328e-19)
(10.2145 1.19911 1.9928e-19)
(10.7376 0.0860554 9.68483e-19)
(11.1665 1.15285 1.03606e-18)
(8.30264 -0.648996 -4.45548e-18)
(11.4627 -8.09781 -1.5039e-19)
(10.0279 1.17113 0)
(11.068 -0.381496 4.6002e-18)
(11.4293 1.5749 2.56357e-18)
(11.0306 0.437871 6.30096e-20)
(12.3179 4.13409 -7.10394e-18)
(7.15088 3.89884 6.67103e-18)
(11.0511 2.2722 7.18566e-19)
(11.0866 1.77709 1.54699e-18)
(10.5386 0.806997 -8.40269e-19)
(10.0272 3.78686 0)
(14.8045 -1.79 4.45175e-18)
(11.7065 2.55878 -2.74752e-18)
(12.1317 2.44214 -4.86618e-18)
(12.5828 1.32185 2.63693e-19)
(8.05362 0.0654714 -9.85388e-18)
(8.35782 1.23327 -4.54818e-18)
(-1.05392 0.93306 1.82729e-17)
(2.34746 0.765767 3.29132e-18)
(-1.94115 -0.329672 -6.12576e-18)
(8.10925 0.540328 8.46448e-19)
(10.7405 8.86457 1.18567e-18)
(11.6678 -4.01292 6.0771e-18)
(7.66558 0.949397 -3.39687e-18)
(12.6757 2.5161 2.04947e-18)
(9.84337 0.645685 9.52824e-18)
(11.3555 1.59638 5.70609e-18)
(9.98985 1.19346 3.54066e-18)
(0.529721 0.0296712 1.70395e-18)
(5.87477 1.3813 6.52553e-19)
(-0.188925 -0.923731 -6.95223e-18)
(2.98645 0.449009 3.64054e-18)
(12.9652 2.58291 0)
(9.64644 1.53189 0)
(11.2564 0.663453 4.24536e-18)
(7.02434 1.79647 -2.75265e-18)
(9.71911 0.955125 -1.22389e-17)
(10.6472 0.570586 2.32342e-18)
(12.7918 3.60384 -1.73774e-19)
(5.14849 -0.133322 -5.12239e-19)
(-1.38757 0.729966 0)
(9.94896 1.10673 -6.37162e-18)
(12.7306 0.783612 3.40454e-18)
(10.7425 0.983209 -9.18381e-19)
(9.87493 -2.62113 3.21638e-18)
(9.93685 0.830472 8.31512e-18)
(4.50171 -5.78306 5.16142e-18)
(12.0752 2.86774 7.46646e-18)
(9.21326 3.89089 -1.77471e-18)
(9.93898 0.832984 2.28357e-18)
(-1.2992 -0.277415 -2.6268e-18)
(16.6438 -7.70464 0)
(9.07402 0.10622 3.9466e-18)
(13.4832 0.0748019 4.17682e-18)
(10.8034 -1.09855 4.40997e-19)
(13.6232 2.07941 2.82204e-18)
(9.9459 0.838919 -6.26118e-20)
(12.2725 1.76575 -1.82656e-18)
(2.85057 -5.67224 8.55982e-19)
(2.79121 1.09885 -4.22229e-20)
(8.45471 -0.617719 1.36771e-17)
(11.1204 0.959136 5.88545e-18)
(10.1096 0.506066 -9.88336e-20)
(10.7247 -1.25541 0)
(13.6797 -0.861529 -4.26893e-18)
(0.0180652 -0.901102 0)
(11.8233 2.45376 0)
(3.03291 -1.66774 4.16862e-18)
(11.2276 0.0448861 3.18858e-19)
(11.307 2.16035 4.74056e-18)
(9.3763 1.09365 -1.32684e-17)
(10.785 1.96833 -3.72125e-19)
(11.1957 -0.644114 -7.02453e-19)
(-0.97866 -1.92337 -1.99973e-17)
(13.9189 2.06906 -7.98791e-18)
(10.089 5.26094 4.79338e-19)
(8.87797 3.94769 -4.95201e-18)
(9.97858 1.42013 -6.24739e-18)
(13.1198 1.56055 5.60014e-18)
(-0.335157 0.83443 1.73004e-18)
(9.89176 1.09209 -3.00861e-18)
(-0.548 -1.24973 -1.8495e-18)
(11.068 0.168854 -3.94595e-19)
(10.1238 -3.58631 5.67628e-20)
(9.92085 0.731576 -1.13059e-18)
(11.0892 0.616476 3.45729e-18)
(2.9057 1.36714 9.09433e-18)
(6.62295 -0.258552 -5.23864e-18)
(10.9155 0.469498 0)
(5.13929 -0.495307 9.39588e-18)
(12.0082 -3.75292 -3.28553e-18)
(-0.250996 0.372816 -1.27939e-19)
(7.90245 7.2056 6.22436e-19)
(-0.441386 0.551388 -2.22065e-17)
(10.4988 1.46918 -5.20709e-19)
(7.05112 -0.412972 -8.23174e-18)
(-0.38442 -1.3144 -1.6282e-17)
(3.54665 1.60526 0)
(11.4808 5.16411 2.47044e-18)
(10.7248 1.39273 1.98955e-18)
(0.16987 0.546941 -1.15676e-17)
(9.33126 -0.527979 1.47361e-17)
(9.66122 -0.446093 2.61999e-18)
(8.22145 0.0587862 1.98285e-17)
(10.4592 0.34556 5.0541e-18)
(-1.08551 1.01102 9.52171e-18)
(15.8924 -1.82272 4.30289e-18)
(12.6802 -2.59029 2.03427e-19)
(11.1462 1.68369 -1.97092e-19)
(9.60433 2.27058 2.14176e-18)
(-0.67364 -1.30542 -1.01313e-17)
(-1.24662 -0.235817 0)
(-0.905735 -0.397862 1.2047e-17)
(5.67161 0.652382 -2.01017e-17)
(10.6958 2.03701 6.74647e-20)
(8.85444 1.40716 -1.26368e-17)
(12.3269 3.95258 0)
(7.90593 -0.304634 0)
(12.3514 0.818819 -8.38399e-20)
(10.3134 -0.459215 -2.12403e-18)
(14.2336 9.48581 1.53724e-17)
(12.2752 2.62211 3.55229e-19)
(12.353 0.808754 1.2193e-17)
(8.45356 5.26483 2.268e-19)
(9.43084 -0.579455 -9.38855e-18)
(-0.0497048 -1.12841 9.47284e-18)
(11.0245 0.317008 0)
(5.05779 -3.98044 4.92175e-18)
(9.73579 0.125356 -1.10148e-17)
(10.2876 0.501633 8.60791e-19)
(-0.601804 0.18826 7.7161e-18)
(10.4009 4.09986 4.06656e-19)
(10.3662 1.06496 9.97738e-19)
(12.3319 -3.08865 -2.87445e-18)
(13.2876 4.04438 4.22236e-18)
(11.3822 1.35083 -2.61684e-18)
(9.93811 0.783502 3.89839e-18)
(6.10613 1.92459 3.08192e-17)
(10.5948 1.32515 -2.22533e-19)
(9.98183 0.497372 -7.93605e-18)
(10.1517 0.451271 1.29065e-18)
(11.3012 0.0400959 1.23341e-18)
(0.829287 -0.743875 2.6431e-18)
(9.84827 0.829747 -5.18236e-18)
(9.92465 0.764229 1.46563e-17)
(12.7556 2.47982 0)
(8.22033 1.11421 -2.55318e-18)
(8.95754 -1.22773 9.1879e-19)
(-2.09416 -0.148025 -5.26935e-18)
(12.1774 1.14871 -3.66612e-18)
(11.494 0.550008 -1.37428e-18)
(12.2799 -2.56517 2.53112e-18)
(12.4871 0.368329 -1.28935e-18)
(10.7448 0.504639 1.1978e-18)
(10.3348 1.83673 8.80024e-20)
(11.211 1.46095 0)
(6.51457 -2.0824 -1.00665e-17)
(10.4442 -0.0155807 0)
(11.1811 1.82885 1.36383e-18)
(10.5165 0.522647 0)
(10.886 0.0548825 -5.37946e-20)
(-0.713193 -0.365478 -8.61703e-18)
(9.53506 1.95469 -7.29406e-19)
(10.3801 0.765681 1.80259e-19)
(11.6852 -1.93481 1.43412e-18)
(9.56471 -0.496893 0)
(10.2958 0.159614 5.18574e-18)
(10.0266 -0.678099 2.52336e-19)
(10.0509 0.601854 -2.12708e-18)
(7.59239 3.32951 -3.83645e-18)
(9.95028 0.838214 7.04559e-18)
(11.2202 0.171888 -1.87773e-18)
(10.2935 0.46084 -3.62007e-18)
(9.9589 0.868302 2.60241e-17)
(13.0504 2.24247 -2.00921e-18)
(13.0241 1.0647 -3.02834e-18)
(10.7337 1.89508 -1.35702e-18)
(11.249 0.0212271 -2.40993e-18)
(10.0597 0.612691 0)
(0.171117 -0.673513 5.54215e-18)
(10.6042 0.615473 -4.42002e-19)
(10.1598 0.552642 -5.60352e-19)
(9.14032 1.10475 5.47781e-18)
(8.35012 1.77072 4.804e-18)
(11.9186 3.60123 -2.97438e-18)
(10.0398 2.51401 8.74305e-19)
(10.6147 -0.777922 -2.43952e-18)
(10.7567 1.82238 1.12173e-18)
(12.2167 1.28508 1.33029e-17)
(11.1163 -6.00451 -3.44681e-18)
(9.24805 -1.06165 0)
(11.3173 1.33729 2.98928e-20)
(10.4505 0.322688 -3.39467e-18)
(-2.03409 -0.112392 1.00775e-19)
(10.0892 1.90535 -5.2463e-20)
(-1.99797 -0.205676 -2.61135e-18)
(11.5968 1.26353 -3.43969e-18)
(-0.670532 -1.67644 9.59288e-21)
(8.61591 -1.67225 1.82274e-18)
(10.8853 1.65602 1.93612e-19)
(10.013 0.649469 -2.28164e-18)
(10.2909 -1.98968 0)
(11.5274 2.38767 3.57026e-19)
(8.00278 -3.45904 -7.58954e-19)
(9.95778 0.863915 -4.19339e-17)
(7.15445 -4.26745 7.82478e-18)
(0.605236 0.412927 -2.80811e-17)
(10.0409 1.69526 -7.81389e-20)
(9.95482 0.87719 2.6105e-20)
(12.5341 -3.94555 -1.8603e-18)
(9.39012 1.95438 -4.62233e-18)
(10.0099 2.1095 -1.88709e-18)
(11.3745 0.410793 -3.13853e-20)
(9.848 1.47262 -5.24449e-18)
(8.95589 0.992666 1.24201e-17)
(11.0741 0.357476 3.15398e-18)
(-1.91195 -0.260518 2.56087e-20)
(9.98456 1.66665 -3.51397e-19)
(11.0512 0.642503 1.48248e-19)
(9.8981 1.44647 7.89238e-18)
(11.5096 0.646633 0)
(10.1316 1.72061 1.13074e-17)
(10.3008 2.67009 -3.16414e-19)
(12.9588 0.3019 -4.42505e-18)
(10.6297 -2.78411 4.29025e-19)
(11.0232 1.74105 2.20818e-18)
(12.1558 0.164566 -1.21212e-17)
(10.9163 -0.661263 1.10893e-18)
(-2.37039 -0.142322 -3.53271e-18)
(10.0832 1.2959 2.69827e-18)
(10.3954 -0.0312905 7.77656e-19)
(14.9505 -2.2516 -4.72422e-18)
(11.442 0.558465 8.09716e-19)
(10.4584 0.910175 0)
(9.95381 0.730149 1.07581e-17)
(9.00055 -2.20413 0)
(9.94326 0.696411 -2.16031e-17)
(11.1763 1.715 -2.31889e-19)
(11.766 0.320687 2.41886e-19)
(4.53012 4.18621 2.22869e-18)
(12.2554 -1.6102 4.41375e-18)
(11.1674 1.66201 5.42951e-18)
(5.29342 1.70331 -6.98235e-18)
(10.5222 1.19379 -7.04333e-19)
(12.8618 -0.662024 1.08163e-17)
(10.0096 0.562462 -2.59794e-18)
(10.6778 0.420101 -1.28474e-19)
(10.6586 -1.45971 8.13495e-19)
(10.5683 1.6187 0)
(8.25725 -3.77997 1.09064e-18)
(-1.22159 -0.8197 -4.74236e-18)
(10.6781 0.453019 3.46445e-19)
(8.23074 2.01272 1.68317e-17)
(5.21511 0.654357 7.40889e-18)
(12.2568 0.545285 0)
(9.47675 0.958219 -1.84618e-18)
(-1.53262 -0.0953002 0)
(9.91918 0.6764 -2.23302e-18)
(9.76736 0.0683927 6.50775e-18)
(8.36936 -2.72807 6.15585e-20)
(12.2775 0.851923 0)
(9.78613 0.708235 8.59918e-18)
(9.72262 1.08545 -5.17366e-18)
(11.3092 1.37159 -3.93854e-18)
(7.34319 6.16407 3.4527e-18)