/*--------------------------------*- C++ -*----------------------------------*\
  =========                 |
  \\      /  F ield         | OpenFOAM: The Open Source CFD Toolbox
   \\    /   O peration     | Website:  https://openfoam.org
    \\  /    A nd           | Version:  7
     \\/     M anipulation  |
\*---------------------------------------------------------------------------*/
FoamFile
{
    version     2.0;
    format      ascii;
    class       volScalarField;
    location    "150";
    object      nut;
}
// * * * * * * * * * * * * * * * * * * * * * * * * * * * * * * * * * * * * * //

dimensions      [0 2 -1 0 0 0 0];

internalField   nonuniform List<scalar> 
11372
(
0.0947382
0.0215726
0.104765
0.121434
0.112715
0.0291944
0.127021
0.0553665
0.100328
0.074443
0.131323
0.111592
0.093019
0.138451
0.0950967
0.115181
0.114028
0.122159
0.135532
0.137925
0.0738794
0.143115
0.0198273
0.0141747
0.130823
0.136204
0.149692
0.135026
0.138941
0.139091
0.136076
0.1397
0.112169
0.13789
0.0632466
0.144373
0.139525
0.112016
0.108581
0.117865
0.0593653
0.13906
0.140925
0.108946
0.139941
0.0633203
0.131582
0.186245
0.0068178
0.130498
0.0141966
0.129371
0.0603324
0.0578449
0.137867
0.130724
0.107443
0.0138747
0.128468
0.119391
0.0770403
0.061594
0.144227
0.0320275
0.189756
0.143624
0.10872
0.156426
0.0734168
0.0602691
0.137067
0.13875
0.140395
0.126273
0.0987059
0.139891
0.13951
0.136096
0.139583
0.0381445
0.182309
0.022345
0.00270161
0.101269
0.0133226
0.0289311
0.14138
0.114715
0.133242
0.0665475
0.141063
0.132322
0.0656427
0.111664
0.139342
0.148742
0.0990526
0.165493
0.144867
0.141154
0.140088
0.127922
0.139792
0.137277
0.137377
0.0341913
0.0295019
0.13907
0.140694
0.134163
0.136618
0.13169
0.0465083
0.139733
0.174161
0.14032
0.0416173
0.140466
0.138059
0.1671
0.177981
0.0675399
0.0867814
0.140161
0.120904
0.13843
0.129946
0.091624
0.12444
0.0453657
0.0856693
0.114274
0.0115606
0.0970119
0.104754
0.139032
0.12571
0.0676139
0.0206401
0.139295
0.0896885
0.139972
0.0644265
0.0796523
0.11075
0.0668856
0.1347
0.134059
0.137032
0.0304297
0.13934
0.0629014
0.123342
0.0514781
0.140061
0.141963
0.123086
0.132674
0.174775
0.136887
0.139032
0.137105
0.0494103
0.139603
0.0204632
0.116516
0.0960099
0.140503
0.139734
0.142348
0.150741
0.145518
0.0445038
0.0968207
0.15643
0.0581935
0.128121
0.175343
0.0434415
0.139619
0.102331
0.137199
0.0494432
0.115854
0.144201
0.0359795
0.104117
0.0453877
0.129227
0.0171205
0.134143
0.139217
0.128854
0.122196
0.102479
0.118938
0.160299
0.13887
0.0775265
0.118328
0.139262
0.134453
0.1362
0.104439
0.139678
0.133744
0.140931
0.131017
0.128735
0.125908
0.0270653
0.13356
0.11505
0.137778
0.138595
0.0532643
0.138728
0.137575
0.138175
0.10912
0.100428
0.138122
0.0208898
0.00291415
0.138898
0.0932946
0.00123631
0.141459
0.139106
0.133439
0.131242
0.138011
0.103813
0.140913
0.111276
0.0641202
0.0783766
0.162857
0.0554082
0.108568
0.139827
0.0448733
0.114676
0.14077
0.105424
0.136054
0.136739
0.159904
0.136324
0.052837
0.130395
0.14382
0.0132256
0.114801
0.0346409
0.135469
0.0794629
0.140538
0.129394
0.138004
0.0757602
0.139737
0.188759
0.137872
0.0955584
0.118859
0.166046
0.13185
0.00382874
0.12091
0.00271625
0.0761083
0.114653
0.110287
0.112586
0.0675528
0.137872
0.141177
0.134159
0.104897
0.120231
0.131324
0.136094
0.136596
0.0329748
0.141056
0.15352
0.00210642
0.14378
0.19136
0.139565
0.139922
0.149557
0.140997
0.0781211
0.138995
0.126205
0.140152
0.113993
0.0625212
0.140043
0.0733914
0.0557467
0.171176
0.135477
0.110566
0.0334724
0.128904
0.140004
0.130979
0.0511964
0.139706
0.164902
0.0184129
0.140635
0.134002
0.125002
0.110852
0.115703
0.0335933
0.124441
0.0972805
0.114466
0.137412
0.139065
0.0965065
0.0739322
0.119338
0.0946985
0.127099
0.151071
0.139006
0.0870962
0.0643255
0.0829336
0.101933
0.142245
0.0605327
0.132963
0.123607
0.155736
0.0609864
0.135603
0.137381
0.14189
0.108367
0.142233
0.131527
0.122594
0.14
0.0180518
0.11186
0.13134
0.120243
0.136586
0.0510295
0.110303
0.132144
0.0931407
0.139686
0.142895
0.124638
0.133618
0.0997821
0.140615
0.0547293
0.10917
0.094454
0.125218
0.137142
0.137701
0.11927
0.0757277
0.130946
0.116722
0.123717
0.111977
0.138455
0.0370003
0.107512
0.139851
0.13855
0.133296
0.114323
0.136407
0.0557059
0.108166
0.128713
0.0866465
0.133546
0.0858133
0.024625
0.140317
0.129501
0.140685
0.12741
0.143179
0.0144014
0.0638345
0.0752809
0.133831
0.141558
0.117809
0.119004
0.126491
0.142434
0.0651955
0.158734
0.132268
0.131763
0.139764
0.0986941
0.13697
0.00971555
0.0487601
0.0122217
0.0297761
0.121911
0.140675
0.137222
0.0749297
0.141935
0.140207
0.0164845
0.136771
0.140088
0.0182343
0.102631
0.132003
0.139804
0.138383
0.141184
0.141666
0.00374179
0.183323
0.140714
0.152675
0.138199
0.0191684
0.123351
0.0938464
0.137106
0.139953
0.129376
0.140916
0.13562
0.00357581
0.138623
0.0225722
0.102795
0.141882
0.0790803
0.127746
0.129612
0.102818
0.0461973
0.0631739
0.0403127
0.138169
0.129239
0.118227
0.117068
0.0412336
0.112675
0.0997872
0.0614167
0.128736
0.0595979
0.169021
0.107772
0.126591
0.12665
0.138196
0.123345
0.0885059
0.108289
0.101527
0.142709
0.141101
0.177035
0.137938
0.0403266
0.0151973
0.140583
0.141092
0.00533581
0.0846543
0.0980502
0.136151
0.140838
0.0391299
0.144404
0.138806
0.144635
0.121474
0.121978
0.126228
0.142626
0.138868
0.139005
0.140196
0.0314203
0.0596515
0.0947801
0.134221
0.13456
0.0111527
0.140544
0.0192126
0.118692
0.0910229
0.0733105
0.115372
0.139524
0.140108
0.139723
0.132009
0.110697
0.124913
0.123649
0.0704397
0.140847
0.0743233
0.129996
0.128933
0.138379
0.0487369
0.140697
0.0319368
0.124998
0.133109
0.140123
0.135286
0.118329
0.141496
0.17663
0.124177
0.141848
0.0666544
0.137551
0.12924
0.0401693
0.09895
0.130722
0.118297
0.127547
0.126231
0.12136
0.0606418
0.0377124
0.140864
0.122704
0.0851952
0.138892
0.13598
0.140105
0.0993878
0.140183
0.133711
0.172504
0.13994
0.140199
0.142658
0.0956504
0.157704
0.132676
0.0986585
0.0600236
0.10642
0.0741317
0.141309
0.108434
0.14013
0.0134919
0.139181
0.121561
0.0930549
0.0141327
0.140787
0.136117
0.181581
0.125816
0.0418866
0.141366
0.102613
0.140345
0.015861
0.141699
0.00150245
0.140873
0.0875319
0.128904
0.0937958
0.0100026
0.162657
0.124406
0.113744
0.119825
0.0620694
0.0394714
0.109839
0.105164
0.140305
0.00863802
0.105041
0.191699
0.14368
0.0808747
0.140875
0.146018
0.0422873
0.1416
0.138101
0.140415
0.048065
0.097454
0.0413448
0.117215
0.0995272
0.156586
0.0365237
0.077
0.129907
0.130017
0.134935
0.136435
0.0806556
0.102496
0.0413382
0.133236
0.0762307
0.139506
0.100428
0.140979
0.0888884
0.0758374
0.0360487
0.139804
0.123936
0.128042
0.138691
0.11977
0.144633
0.140912
0.13808
0.141009
0.129748
0.0402506
0.0556787
0.136031
0.137833
0.0831903
0.134041
0.0119079
0.140442
0.0797565
0.140027
0.0181181
0.135141
0.0153612
0.145702
0.133912
0.134858
0.0287142
0.0787736
0.0243477
0.0786932
0.0945474
0.13057
0.147603
0.0856194
0.0144167
0.138085
0.137941
0.138546
0.0807184
0.142286
0.140432
0.134172
0.064434
0.132211
0.128176
0.107274
0.0370483
0.0453962
0.141768
0.141385
0.107475
0.12701
0.0853629
0.139965
0.139939
0.140269
0.125409
0.119505
0.113076
0.108682
0.139868
0.0993017
0.142361
0.00172195
0.112081
0.0808281
0.101824
0.132838
0.140388
0.140274
0.140388
0.135708
0.138086
0.04052
0.0296449
0.140236
0.177621
0.1134
0.135186
0.141196
0.116501
0.120302
0.135496
0.0486436
0.11772
0.123943
0.106756
0.0535168
0.140357
0.14112
0.105303
0.13932
0.125954
0.0251817
0.140561
0.0914923
0.124094
0.135492
0.0920155
0.107256
0.151546
0.134324
0.142136
0.118948
0.0365474
0.120274
0.112217
0.0954177
0.12681
0.129801
0.0540022
0.175666
0.156459
0.0423187
0.0315266
0.0838423
0.125778
0.0917861
0.138452
0.132077
0.140508
0.16599
0.161161
0.102966
0.0294105
0.0752101
0.137276
0.138896
0.178997
0.138202
0.143369
0.0843929
0.105421
0.00186389
0.140345
0.0748914
0.14225
0.114056
0.139346
0.0324653
0.109909
0.117403
0.14002
0.182498
0.0136195
0.133249
0.0204259
0.1277
0.0279543
0.139515
0.0128242
0.0131886
0.0567192
0.127152
0.138142
0.140571
0.126517
0.0546425
0.0968898
0.119109
0.053923
0.135514
0.107408
0.135659
0.135293
0.129606
0.00783723
0.0200971
0.0995415
0.116088
0.140234
0.0467797
0.108544
0.140138
0.018479
0.110343
0.100955
0.140088
0.13765
0.176567
0.114562
0.139308
0.0746395
0.0838287
0.0092496
0.0647031
0.0141298
0.140796
0.117916
0.0159194
0.0709505
0.0908118
0.141205
0.0237515
0.131903
0.133789
0.127887
0.140846
0.0841782
0.01297
0.0879493
0.122561
0.13268
0.0664542
0.182449
0.123672
0.0911964
0.135092
0.132115
0.0935879
0.124634
0.104617
0.135051
0.0106104
0.106639
0.107457
0.099172
0.131955
0.0592145
0.127202
0.0649647
0.136978
0.141129
0.0245509
0.114288
0.142489
0.0886274
0.0660846
0.132365
0.140086
0.109838
0.142787
0.140004
0.140618
0.110817
0.0933866
0.13856
0.140098
0.0874258
0.129351
0.126039
0.181308
0.114268
0.127717
0.0954889
0.0848716
0.142492
0.138176
0.13314
0.102981
0.138841
0.107599
0.1452
0.138437
0.110909
0.128383
0.14187
0.111124
0.0676574
0.139933
0.132911
0.140426
0.115418
0.139916
0.118241
0.140899
0.139944
0.0519657
0.0429207
0.0963271
0.10931
0.140475
0.118218
0.141682
0.141028
0.13429
0.128078
0.10561
0.131879
0.131637
0.097153
0.103832
0.0557183
0.128139
0.133989
0.140799
0.168175
0.137181
0.122126
0.129003
0.0330465
0.121136
0.125131
0.140343
0.120188
0.124335
0.0993339
0.139876
0.0830332
0.0203349
0.0995645
0.139988
0.0735145
0.133528
0.135155
0.127801
0.139396
0.133413
0.131001
0.115453
0.13899
0.138664
0.139868
0.128719
0.138884
0.130209
0.0681904
0.109669
0.116459
0.0662438
0.131332
0.156386
0.140658
0.138609
0.0354753
0.129118
0.14214
0.140122
0.117643
0.140037
0.119627
0.129084
0.0734164
0.105464
0.124001
0.180233
0.143329
0.0926313
0.140416
0.140979
0.124594
0.139632
0.0964371
0.0809551
0.141081
0.126509
0.100275
0.114396
0.136329
0.153787
0.139688
0.137007
0.109777
0.108134
0.13791
0.138714
0.133656
0.0794532
0.150255
0.121602
0.120283
0.140556
0.178237
0.10793
0.104991
0.139326
0.136032
0.134286
0.103858
0.121852
0.140598
0.0722102
0.140131
0.122517
0.11146
0.141127
0.130188
0.145741
0.0656549
0.109344
0.134499
0.123715
0.117952
0.1401
0.0833509
0.140181
0.112852
0.139894
0.138033
0.0295817
0.18322
0.131952
0.134442
0.130847
0.183215
0.131249
0.13793
0.177523
0.137881
0.113881
0.0949099
0.141158
0.129592
0.118781
0.174624
0.135304
0.140099
0.0968694
0.0541663
0.107263
0.1068
0.105696
0.141039
0.0800239
0.124369
0.140226
0.128571
0.134336
0.137818
0.0977934
0.037967
0.140285
0.136331
0.117301
0.134429
0.0870427
0.119745
0.140017
0.0397847
0.0473705
0.140009
0.126787
0.100123
0.109207
0.060831
0.00200524
0.130789
0.122964
0.108022
0.0600755
0.146022
0.104565
0.116338
0.142389
0.0556687
0.130996
0.114027
0.120116
0.132244
0.133521
0.0729443
0.140286
0.132657
0.115895
0.0385581
0.130017
0.0488553
0.140009
0.0802661
0.126301
0.0414266
0.0420146
0.136084
0.125757
0.140001
0.0944076
0.108434
0.0626263
0.179266
0.188862
0.0833852
0.0668582
0.138492
0.136506
0.00999054
0.0927686
0.00774154
0.0456466
0.128285
0.0930476
0.135309
0.119837
0.139929
0.128682
0.137455
0.140189
0.0281218
0.136711
0.110439
0.144506
0.137125
0.126956
0.0450164
0.11325
0.14331
0.140081
0.142212
0.121959
0.136501
0.133204
0.176023
0.172446
0.140496
0.0180637
0.13907
0.0639458
0.132236
0.185651
0.118329
0.130385
0.142681
0.0705322
0.0155887
0.143262
0.00912128
0.00344835
0.0735545
0.14132
0.130183
0.135921
0.139686
0.138385
0.136947
0.0737786
0.127073
0.140352
0.121363
0.140084
0.140153
0.0216766
0.144304
0.126689
0.140364
0.0803754
0.141329
0.122662
0.083805
0.082991
0.104962
0.105323
0.129675
0.0890683
0.136786
0.125464
0.143457
0.111707
0.12548
0.129502
0.131731
0.0963509
0.129835
0.13268
0.110542
0.101111
0.0925768
0.015845
0.142347
0.133313
0.134129
0.139019
0.042473
0.0719439
0.140446
0.0257788
0.129996
0.175715
0.0600983
0.0982027
0.101528
0.144183
0.114735
0.0842576
0.140767
0.139472
0.0950964
0.129536
0.0583799
0.039935
0.138631
0.137987
0.143016
0.167227
0.127579
0.0988069
0.0849143
0.0865509
0.137788
0.0817688
0.13728
0.0110419
0.122413
0.0345564
0.0817452
0.143126
0.141088
0.152488
0.0975833
0.112565
0.0994153
0.136664
0.112095
0.130553
0.0343366
0.0197053
0.178243
0.0450517
0.140636
0.0536176
0.0688104
0.139395
0.138033
0.00684017
0.137769
0.143848
0.141939
0.0954386
0.135755
0.00120379
0.135315
0.140796
0.13185
0.0804415
0.0890997
0.139952
0.0964216
0.125001
0.120732
0.0446606
0.175212
0.140279
0.0578362
0.0963107
0.0873
0.109467
0.0955276
0.136812
0.105866
0.139057
0.0199803
0.134403
0.137662
0.116983
0.117408
0.140507
0.0137064
0.0944735
0.131056
0.073523
0.00709709
0.121331
0.13216
0.0601661
0.139619
0.134325
0.141581
0.139999
0.109981
0.0847169
0.138892
0.105178
0.0915263
0.136335
0.0261773
0.140245
0.108698
0.109304
0.141578
0.14396
0.136054
0.0796453
0.140317
0.0749914
0.155185
0.136545
0.140609
0.14007
0.099911
0.128329
0.0879531
0.132949
0.140994
0.140827
0.137332
0.122163
0.139507
0.114636
0.144284
0.015724
0.142792
0.141667
0.015689
0.140207
0.12782
0.134257
0.0255089
0.109703
0.0433709
0.110368
0.142559
0.106063
0.114371
0.144862
0.0265574
0.07664
0.135489
0.107054
0.108821
0.0340897
0.138172
0.0942574
0.0719435
0.131744
0.0910306
0.124527
0.141014
0.181638
0.13564
0.0877299
0.0725982
0.00184377
0.127403
0.141682
0.171716
0.138995
0.021893
0.133437
0.081362
0.113058
0.139389
0.140945
0.125775
0.133337
0.140265
0.11972
0.0852053
0.145349
0.0694493
0.160306
0.0709087
0.138771
0.0603105
0.134383
0.133778
0.0503178
0.136671
0.140106
0.119393
0.0880979
0.140855
0.116618
0.14064
0.111374
0.132036
0.0820417
0.124038
0.108797
0.140912
0.0470545
0.117084
0.087525
0.13381
0.00257118
0.152545
0.0855223
0.117176
0.135696
0.0548874
0.112836
0.168468
0.0326991
0.0221207
0.140165
0.0848354
0.0196177
0.126777
0.133567
0.180936
0.119274
0.0370137
0.00950129
0.00496553
0.115025
0.137152
0.129048
0.140614
0.141583
0.13912
0.0088938
0.127313
0.0922125
0.129278
0.0947722
0.0826441
0.0115557
0.137657
0.0277903
0.138825
0.12045
0.13711
0.100038
0.0915452
0.139575
0.139505
0.138146
0.139078
0.0156135
0.0840189
0.126166
0.0690244
0.0328991
0.135881
0.136937
0.139954
0.131923
0.0292315
0.0861366
0.130926
0.109566
0.140458
0.136976
0.0917082
0.141741
0.140682
0.145681
0.139893
0.0214664
0.123184
0.123207
0.144247
0.11402
0.179953
0.0190783
0.141584
0.125386
0.106792
0.138785
0.130063
0.138297
0.113154
0.119893
0.133311
0.179979
0.178976
0.130593
0.100321
0.139416
0.0608888
0.0246482
0.0826111
0.0171883
0.123094
0.078132
0.00736923
0.140556
0.110866
0.139706
0.113148
0.0705704
0.1308
0.141161
0.105931
0.0721265
0.0625347
0.0866334
0.138429
0.135176
0.11824
0.180733
0.0267184
0.129676
0.00335188
0.140592
0.0698524
0.0977428
0.0805756
0.0918544
0.103927
0.0936628
0.12036
0.139934
0.0268209
0.101615
0.0842365
0.130213
0.140602
0.137153
0.140236
0.136723
0.148676
0.109583
0.120417
0.142258
0.133718
0.13154
0.144856
0.140877
0.129589
0.135148
0.115077
0.0865336
0.0152131
0.08143
0.141211
0.0914329
0.0569492
0.00776368
0.108202
0.111147
0.0684707
0.121398
0.140723
0.140839
0.0204684
0.186954
0.126287
0.124614
0.119025
0.12551
0.117553
0.135037
0.139052
0.163073
0.0967678
0.140032
0.00572599
0.112802
0.0827373
0.138369
0.113083
0.141516
0.0930077
0.137382
0.140708
0.139638
0.104417
0.139857
0.0314925
0.12193
0.140196
0.0135255
0.0113072
0.111714
0.141612
0.139796
0.139874
0.139746
0.144273
0.141702
0.0794061
0.0177967
0.0981784
0.143077
0.0802245
0.0206009
0.120997
0.10274
0.115385
0.138075
0.140519
0.137816
0.0702384
0.055629
0.0135494
0.0995319
0.140873
0.14704
0.0984469
0.140397
0.0860027
0.140465
0.104946
0.140117
0.0831739
0.0557764
0.0819115
0.140738
0.135113
0.130621
0.136179
0.110807
0.140109
0.106258
0.140456
0.120818
0.0922536
0.14099
0.138578
0.11744
0.128525
0.0358543
0.109618
0.127547
0.112073
0.148365
0.135512
0.140117
0.0525008
0.140875
0.123764
0.117989
0.137812
0.140732
0.118023
0.129048
0.141396
0.0901202
0.140409
0.137351
0.0118682
0.127503
0.102018
0.0214708
0.140102
0.151932
0.137432
0.137873
0.135594
0.00460269
0.139643
0.126368
0.139789
0.136162
0.144769
0.138212
0.085617
0.137646
0.0241162
0.105947
0.139204
0.0225304
0.040358
0.112063
0.140547
0.0947317
0.166788
0.12125
0.141185
0.103967
0.111787
0.104215
0.140027
0.117495
0.0596722
0.0481315
0.113088
0.142527
0.135642
0.126932
0.0436545
0.0685401
0.13736
0.153275
0.12601
0.135932
0.152232
0.138513
0.106237
0.142507
0.139059
0.14155
0.143
0.063059
0.135287
0.127098
0.087855
0.108687
0.14127
0.102173
0.172796
0.0189219
0.0746605
0.140001
0.140349
0.0589549
0.123879
0.114167
0.135222
0.141717
0.0119923
0.0977794
0.139971
0.117705
0.0281335
0.169873
0.140062
0.134913
0.140022
0.0122641
0.080265
0.135376
0.117698
0.102437
0.11922
0.112186
0.128509
0.134096
0.0217279
0.0131937
0.152963
0.139732
0.110233
0.106066
0.114251
0.0877251
0.174
0.139912
0.122454
0.130932
0.123644
0.154029
0.139183
0.140959
0.117772
0.132142
0.131221
0.139954
0.101424
0.185877
0.0778673
0.138615
0.143177
0.162039
0.0822651
0.123066
0.0952501
0.142001
0.13937
0.0943602
0.0163133
0.0732944
0.140604
0.134419
0.059694
0.135438
0.139486
0.129196
0.130266
0.139749
0.125656
0.140451
0.12948
0.056236
0.164091
0.0116395
0.0105731
0.0896399
0.122413
0.0456993
0.0745195
0.143802
0.130981
0.1409
0.140347
0.167316
0.138748
0.0347637
0.142242
0.160343
0.141302
0.126533
0.132792
0.120005
0.109914
0.1357
0.128756
0.0762224
0.152014
0.136583
0.12064
0.101773
0.14239
0.129085
0.146053
0.134123
0.0260727
0.139662
0.13723
0.0869021
0.121986
0.01357
0.0821875
0.134495
0.0338286
0.141442
0.142646
0.0759299
0.0655327
0.0562018
0.139658
0.130601
0.0167989
0.097395
0.133089
0.144766
0.114466
0.0500257
0.1839
0.11351
0.00707713
0.16761
0.113555
0.139703
0.116761
0.124406
0.140276
0.139673
0.0880209
0.102402
0.140539
0.0527769
0.0572799
0.0773128
0.142459
0.0541774
0.125017
0.0894042
0.0936062
0.139719
0.138766
0.0229835
0.0482619
0.139614
0.12779
0.0799502
0.0872214
0.130336
0.133355
0.140095
0.0927816
0.140683
0.138735
0.125986
0.140812
0.131715
0.136376
0.0196895
0.0293604
0.126217
0.123705
0.1403
0.139062
0.00394518
0.140963
0.022994
0.0713316
0.138295
0.137546
0.140677
0.139799
0.0921157
0.136465
0.0167785
0.0639548
0.0454579
0.140451
0.118823
0.0342084
0.140996
0.131171
0.137509
0.119368
0.14092
0.133923
0.0477532
0.120021
0.048678
0.166633
0.0585526
0.101919
0.140169
0.0181773
0.13989
0.141097
0.134568
0.124441
0.106864
0.054902
0.137103
0.107046
0.11272
0.116687
0.0376551
0.126835
0.116683
0.0601244
0.0522527
0.120303
0.120708
0.0768014
0.140086
0.0594912
0.128952
0.122146
0.0129768
0.140679
0.011108
0.140356
0.140719
0.139525
0.12999
0.133989
0.134916
0.134163
0.140038
0.13411
0.121293
0.139048
0.0952667
0.114184
0.10711
0.0800284
0.150532
0.0646601
0.139698
0.137423
0.138624
0.104926
0.116288
0.0468259
0.137461
0.0237225
0.140743
0.140932
0.117703
0.138921
0.137906
0.192623
0.0787885
0.140165
0.082735
0.120626
0.11116
0.06459
0.156971
0.00551879
0.0466852
0.105229
0.133385
0.118983
0.136526
0.138084
0.121591
0.0136199
0.138259
0.124455
0.0321371
0.152322
0.108177
0.0853096
0.100876
0.138061
0.120222
0.140579
0.133481
0.0141071
0.0469148
0.0536426
0.0812729
0.140603
0.141789
0.140246
0.0145957
0.0226409
0.139378
0.0739867
0.140677
0.0913294
0.0708984
0.125326
0.137116
0.136509
0.139661
0.124271
0.0741015
0.141084
0.0734119
0.0876262
0.0952393
0.0735558
0.107653
0.117483
0.140051
0.0433174
0.0980185
0.140018
0.130001
0.137558
0.13444
0.138861
0.110743
0.126783
0.0096001
0.142958
0.06599
0.0278854
0.138789
0.141266
0.128608
0.104027
0.0229171
0.087987
0.028819
0.0177518
0.186242
0.113422
0.080361
0.135622
0.0158552
0.133436
0.0133411
0.14162
0.00304726
0.0654388
0.0667186
0.142488
0.140073
0.0962965
0.00878988
0.100634
0.140648
0.138395
0.12503
0.144459
0.140603
0.129804
0.0871053
0.138204
0.0636219
0.120953
0.133271
0.122714
0.110585
0.18352
0.140778
0.119092
0.11708
0.138729
0.135336
0.142062
0.135654
0.140685
0.121444
0.141743
0.0565171
0.13376
0.135732
0.014648
0.140242
0.139351
0.0657586
0.133752
0.114719
0.141794
0.0857111
0.0342421
0.139819
0.115741
0.0602995
0.0625961
0.140402
0.0281158
0.140948
0.117696
0.0920179
0.117973
0.111069
0.1387
0.132042
0.127537
0.0443267
0.175487
0.0850018
0.114888
0.118853
0.0947595
0.130267
0.104905
0.099835
0.125222
0.0216172
0.11724
0.125965
0.119765
0.114479
0.129179
0.14071
0.124217
0.0129761
0.139515
0.0714241
0.115251
0.107239
0.138874
0.116082
0.088533
0.135027
0.142956
0.0144224
0.129873
0.10495
0.101772
0.0698713
0.140766
0.120562
0.118533
0.0419426
0.139836
0.123372
0.133714
0.0975612
0.10294
0.136618
0.0370242
0.119817
0.1264
0.162367
0.0617113
0.133244
0.137
0.114603
0.106637
0.140499
0.141379
0.110119
0.0506783
0.11184
0.136809
0.141911
0.0884937
0.134676
0.129864
0.0110885
0.142569
0.131042
0.0594089
0.130156
0.0161631
0.133722
0.0939074
0.0200337
0.137805
0.139756
0.0521833
0.132385
0.142762
0.13984
0.109493
0.126688
0.142411
0.1413
0.0854665
0.141737
0.136125
0.0693659
0.117972
0.139915
0.13943
0.128889
0.089592
0.141002
0.143519
0.104554
0.113986
0.121847
0.11746
0.0422725
0.0833575
0.140659
0.11029
0.134284
0.140204
0.182591
0.0946943
0.0512904
0.0919189
0.128947
0.0809212
0.100642
0.142658
0.08811
0.0212682
0.138028
0.137383
0.11072
0.0953681
0.0130083
0.0432602
0.00451054
0.0537494
0.141147
0.135902
0.140199
0.0557013
0.135758
0.0532538
0.137819
0.133752
0.135898
0.14297
0.138177
0.136942
0.135596
0.181368
0.140343
0.125758
0.0282441
0.142422
0.138051
0.163014
0.103364
0.142888
0.102677
0.140176
0.0962525
0.13577
0.0851209
0.140163
0.0278089
0.126759
0.135455
0.11143
0.141892
0.0808823
0.115753
0.0987351
0.10614
0.113323
0.13312
0.113325
0.140345
0.122044
0.115007
0.127524
0.140167
0.13036
0.138862
0.0749726
0.0297484
0.0889257
0.187098
0.140662
0.0836855
0.139112
0.132308
0.0106581
0.123031
0.0974516
0.0892611
0.0990913
0.138815
0.125257
0.136091
0.122946
0.132295
0.111145
0.138287
0.14037
0.120083
0.099863
0.143378
0.127486
0.12385
0.131903
0.0501848
0.133091
0.160033
0.113535
0.115119
0.0221866
0.129401
0.0710073
0.140689
0.141737
0.0228945
0.115385
0.124446
0.144
0.0416553
0.135765
0.138863
0.13241
0.116137
0.0976626
0.142144
0.0744456
0.143177
0.0110019
0.0163439
0.0690743
0.0700707
0.140436
0.132406
0.142811
0.125572
0.0085936
0.139812
0.141567
0.130859
0.136925
0.11464
0.137206
0.0413573
0.13486
0.140393
0.12425
0.145325
0.124511
0.140148
0.107071
0.140457
0.131924
0.136351
0.0833859
0.138606
0.141188
0.139649
0.115161
0.136277
0.0208252
0.0608788
0.0841606
0.140193
0.140855
0.0626671
0.118941
0.0937272
0.131159
0.17755
0.0230383
0.0546183
0.13148
0.116921
0.140472
0.0274887
0.136904
0.131626
0.167012
0.0978142
0.126537
0.14632
0.106169
0.0615416
0.0662676
0.141494
0.00771813
0.109552
0.0982242
0.10005
0.139765
0.118167
0.140709
0.138441
0.0888465
0.0344433
0.181863
0.141578
0.112982
0.138611
0.0432314
0.0999007
0.136199
0.010318
0.144206
0.136474
0.184556
0.141201
0.0210285
0.0950802
0.0491892
0.133466
0.140783
0.129624
0.0100829
0.0913356
0.00638203
0.12169
0.101962
0.128951
0.0716486
0.11651
0.139808
0.110976
0.136871
0.135936
0.137798
0.0206056
0.0828393
0.14133
0.136543
0.0956357
0.140139
0.127725
0.141562
0.117262
0.137669
0.140542
0.123781
0.0249453
0.109818
0.138465
0.143523
0.108845
0.101949
0.143425
0.105468
0.104223
0.0320787
0.131265
0.0415146
0.0290573
0.0633545
0.12483
0.0892233
0.171842
0.0915014
0.0867168
0.0536559
0.0113232
0.12251
0.138038
0.0717386
0.107794
0.13076
0.0955764
0.139571
0.138135
0.134132
0.113116
0.0350154
0.140464
0.136611
0.138848
0.140713
0.101943
0.141102
0.0425059
0.0814774
0.13391
0.13155
0.104785
0.136848
0.124751
0.0129766
0.119819
0.140049
0.135884
0.106371
0.139403
0.156012
0.0131788
0.122491
0.137452
0.116394
0.043741
0.139193
0.12301
0.0989072
0.0104182
0.121999
0.0477358
0.116895
0.140717
0.0985405
0.112274
0.13279
0.129486
0.131606
0.0142771
0.102439
0.140794
0.140067
0.140031
0.135894
0.0874695
0.00987409
0.131922
0.134724
0.135798
0.140462
0.144254
0.0510176
0.0519105
0.10955
0.173035
0.139003
0.0787299
0.0614849
0.13755
0.0799783
0.0313402
0.0300245
0.142247
0.136787
0.118478
0.140073
0.133668
0.136306
0.011086
0.0511665
0.107379
0.0366202
0.133395
0.140253
0.0735713
0.141414
0.122507
0.0392358
0.11144
0.13885
0.133274
0.126585
0.134898
0.0828378
0.125358
0.135878
0.138448
0.124995
0.0502381
0.125692
0.141466
0.141094
0.111747
0.139556
0.137892
0.103918
0.0896498
0.0144273
0.137255
0.121104
0.107342
0.139117
0.128072
0.101855
0.123575
0.0226838
0.124702
0.120168
0.135191
0.136588
0.131395
0.103947
0.18515
0.150405
0.138243
0.0512821
0.12173
0.180135
0.137003
0.130366
0.107281
0.177009
0.0892812
0.121795
0.0921073
0.134828
0.105134
0.134918
0.139451
0.0222867
0.107724
0.132523
0.0120763
0.140757
0.131658
0.137729
0.114143
0.0635544
0.139082
0.113564
0.132366
0.135146
0.144738
0.104858
0.105531
0.114819
0.140453
0.133102
0.0655627
0.0338354
0.125891
0.117612
0.036895
0.137778
0.146107
0.135149
0.0472695
0.0377632
0.133334
0.130138
0.0971536
0.0618559
0.140267
0.140114
0.123307
0.126237
0.172219
0.140487
0.142258
0.137238
0.138328
0.0769163
0.178824
0.138178
0.137044
0.111989
0.139346
0.0852863
0.0845986
0.0644337
0.133939
0.0281768
0.0177195
0.143448
0.0984267
0.140113
0.172336
0.078736
0.0984028
0.140028
0.140698
0.13324
0.0517845
0.130769
0.0198561
0.0415456
0.11892
0.0125992
0.0683238
0.140918
0.113513
0.139939
0.0342187
0.116091
0.143641
0.140378
0.172133
0.140586
0.0684461
0.132281
0.109236
0.0906669
0.136429
0.132281
0.0353218
0.0708926
0.0799415
0.0769405
0.101149
0.0823595
0.169088
0.140082
0.126189
0.13492
0.124619
0.111549
0.135818
0.12968
0.131901
0.127734
0.14149
0.0495751
0.0869978
0.13804
0.14346
0.140153
0.131721
0.101464
0.135879
0.157034
0.108236
0.00240732
0.137012
0.135824
0.10236
0.0703515
0.132803
0.120104
0.0344581
0.100732
0.140316
0.13517
0.141911
0.143625
0.102635
0.135825
0.0672898
0.131989
0.132151
0.0654643
0.0692874
0.137357
0.142886
0.0658485
0.122725
0.0322034
0.140277
0.0432826
0.110407
0.150646
0.138981
0.0522226
0.140899
0.110523
0.0276968
0.0722032
0.131195
0.141569
0.0119016
0.131538
0.133026
0.138764
0.120695
0.1417
0.11447
0.11396
0.110247
0.121722
0.114282
0.0750409
0.137553
0.113013
0.136192
0.0592176
0.0930886
0.138679
0.149295
0.102378
0.140518
0.140799
0.0127007
0.0850772
0.132894
0.0573728
0.11028
0.141937
0.136158
0.130793
0.0686481
0.141425
0.0768158
0.0741644
0.0284741
0.155722
0.141061
0.0932478
0.0692921
0.0635011
0.128358
0.0356851
0.101903
0.138051
0.135617
0.140245
0.132885
0.111855
0.0744101
0.0715006
0.136552
0.0767609
0.152284
0.0573812
0.142235
0.105195
0.0998678
0.134242
0.140213
0.136529
0.185997
0.139066
0.138782
0.128777
0.137761
0.0182291
0.123218
0.115685
0.101439
0.134339
0.127577
0.106745
0.132715
0.117607
0.107199
0.124267
0.12117
0.10735
0.129499
0.0601169
0.169843
0.129223
0.14747
0.150938
0.155438
0.141248
0.163173
0.141513
0.136522
0.120522
0.119005
0.125061
0.140131
0.102965
0.12921
0.140373
0.138609
0.140383
0.0332401
0.124051
0.137259
0.0959017
0.12267
0.134306
0.141157
0.134779
0.139704
0.128349
0.140032
0.140758
0.140115
0.14004
0.0246794
0.019249
0.14005
0.130401
0.140221
0.102306
0.143986
0.0370827
0.136273
0.141737
0.140368
0.142507
0.0409034
0.131832
0.118871
0.097018
0.086373
0.140028
0.058408
0.0582423
0.0194248
0.057261
0.0926631
0.154054
0.111842
0.00576415
0.140626
0.113511
0.111023
0.126482
0.140518
0.139384
0.137461
0.0595473
0.10387
0.0646146
0.13005
0.123814
0.138352
0.139197
0.14009
0.129446
0.0220863
0.0336559
0.122825
0.00663901
0.102863
0.128337
0.121991
0.139422
0.142765
0.139428
0.127642
0.0774943
0.0451121
0.139145
0.140089
0.0369994
0.150711
0.138604
0.140879
0.0900595
0.136079
0.136935
0.0648097
0.133032
0.142362
0.0969519
0.121165
0.068041
0.125792
0.120463
0.015868
0.0572991
0.0746951
0.021737
0.138281
0.138834
0.0426008
0.0127967
0.0775405
0.154357
0.106154
0.129793
0.121348
0.124588
0.0114477
0.144013
0.133948
0.0247505
0.140134
0.123815
0.141163
0.163839
0.18326
0.0538886
0.140446
0.130777
0.112845
0.0204009
0.15235
0.133624
0.142176
0.141679
0.0539738
0.134374
0.122692
0.136881
0.1054
0.0718055
0.108774
0.147932
0.138115
0.140447
0.137315
0.140367
0.0740078
0.135485
0.132062
0.0716665
0.125324
0.114342
0.00636722
0.143211
0.138515
0.121837
0.035262
0.139574
0.140791
0.00134846
0.126892
0.0155006
0.103393
0.0883769
0.11113
0.139864
0.128362
0.132584
0.133665
0.10746
0.132342
0.0845653
0.116628
0.111088
0.101793
0.139357
0.139521
0.173244
0.119392
0.118708
0.126882
0.118733
0.0220018
0.00529385
0.133001
0.12209
0.0812955
0.106611
0.0300722
0.0295886
0.141031
0.0324446
0.0800524
0.114898
0.141564
0.140117
0.144059
0.140002
0.00785165
0.0479203
0.0517781
0.0789667
0.105155
0.136004
0.140091
0.0922398
0.0887373
0.139967
0.13965
0.140289
0.141168
0.140125
0.133513
0.136676
0.0910579
0.0453475
0.0911027
0.116366
0.128998
0.140875
0.106613
0.140141
0.191505
0.139664
0.0412842
0.193219
0.157284
0.137928
0.100949
0.0674339
0.141936
0.142179
0.0993591
0.123319
0.138476
0.125015
0.0939105
0.00975474
0.140512
0.101858
0.0632828
0.10807
0.141069
0.140109
0.131344
0.109668
0.128717
0.140733
0.137773
0.114385
0.137213
0.176636
0.101091
0.119944
0.114357
0.127666
0.0660327
0.161164
0.123208
0.141247
0.12304
0.0966003
0.13475
0.037447
0.0468674
0.0994071
0.0976862
0.126986
0.127071
0.0954336
0.0802161
0.0316741
0.0737869
0.130645
0.111361
0.0769578
0.140536
0.142484
0.0675961
0.118719
0.0961652
0.107265
0.132053
0.0599658
0.119043
0.0585718
0.140737
0.139983
0.130301
0.0117464
0.142811
0.123708
0.140648
0.0999484
0.115411
0.140046
0.0921837
0.183013
0.155137
0.139684
0.122776
0.130974
0.137907
0.139872
0.136237
0.123252
0.140046
0.0605809
0.128707
0.117253
0.129862
0.127098
0.140063
0.0012039
0.119019
0.140396
0.140384
0.055301
0.14
0.0991763
0.14089
0.069168
0.0939928
0.0440688
0.0960026
0.138329
0.072973
0.0693019
0.106585
0.136342
0.100838
0.140249
0.0941229
0.100482
0.0448836
0.110484
0.141475
0.14011
0.135551
0.125242
0.165758
0.140315
0.172426
0.120816
0.140056
0.0289376
0.139531
0.0752638
0.140581
0.112946
0.0359919
0.127227
0.136668
0.115216
0.0957011
0.136744
0.0391869
0.1798
0.0280497