/*--------------------------------*- C++ -*----------------------------------*\
  =========                 |
  \\      /  F ield         | OpenFOAM: The Open Source CFD Toolbox
   \\    /   O peration     | Website:  https://openfoam.org
    \\  /    A nd           | Version:  7
     \\/     M anipulation  |
\*---------------------------------------------------------------------------*/
FoamFile
{
    version     2.0;
    format      ascii;
    class       volScalarField;
    location    "150";
    object      p;
}
// * * * * * * * * * * * * * * * * * * * * * * * * * * * * * * * * * * * * * //

dimensions      [0 2 -2 0 0 0 0];

internalField   nonuniform List<scalar> 
11372
(
-10.6541
-30.4227
33.1343
-41.1997
-0.538047
-30.5013
-16.9542
-16.8728
-1.82627
24.3316
-13.0575
36.017
-13.6597
-0.00539263
-1.29464
-42.6036
-8.10307
-19.0269
8.85423
13.3663
-49.5961
-3.15181
0.335305
-41.5077
-3.83788
0.145506
-34.5555
0.484586
12.1088
12.1761
10.5442
11.3574
-3.00161
-4.52117
54.8862
-0.334324
-7.00622
0.020321
-21.4079
-18.1217
-37.2395
11.8737
-5.63879
43.4475
8.49581
-9.39627
-1.04245
-21.1108
-28.7613
-3.97885
-44.6708
-14.459
34.328
-42.9821
8.47214
-12.9537
41.8405
-29.3097
-4.01845
36.5657
-15.7765
-37.4656
-0.164357
-38.0601
-0.142717
-0.296688
-26.0731
-38.809
28.1535
-44.8807
-1.3671
-1.72877
-7.11789
-12.4547
-29.5368
11.1506
-44.0504
-2.07587
11.4399
-50.0414
-54.924
43.8937
63.3796
18.5276
-62.0885
-51.0965
-1.08948
-1.53362
20.7622
-48.1318
-6.23547
11.0686
-31.8005
14.9262
6.4874
1.12334
-8.49558
-11.2368
-56.3659
-1.78197
10.1576
27.0676
11.7067
-4.55407
14.4398
58.0321
-28.3436
12.4681
0.419909
19.4121
1.32949
22.896
2.35181
10.437
-31.6092
9.34024
-21.213
3.07102
-0.239083
-58.9672
-30.2207
-40.2024
0.552531
3.64935
34.668
12.8202
-3.96405
-13.1455
-8.44729
-39.6503
-6.21205
-17.0665
-29.7334
-14.2104
-28.3543
-8.39026
-17.0859
-26.0449
52.0755
12.2098
-2.62562
10.9563
-49.6689
15.853
-0.425446
-13.5387
-37.8309
10.8523
10.6319
-26.8288
4.77431
-32.59
-5.67104
-31.8543
5.9454
1.20282
-2.23623
-1.64838
-18.717
15.0618
-1.01059
-4.96424
-37.2097
11.4007
-46.7945
-4.91846
-30.3611
-46.6929
-5.63029
0.10551
-33.8855
-3.55032
-54.146
-30.9879
-1.15118
-54.6127
6.59725
-33.641
-60.8347
11.5821
16.9278
13.8818
-52.5689
-18.0071
-61.5176
-24.6127
26.2728
-40.3181
26.6842
-29.0759
-0.931838
10.6011
27.1496
-19.6485
-11.2291
-19.9025
-38.1195
12.3713
-42.051
-19.5515
11.8816
18.881
15.9751
-4.96102
1.3048
-11.8953
4.10952
-3.13016
-14.8064
25.6074
-29.9918
-2.1493
-0.102974
13.5106
12.8623
-47.7137
12.2442
13.6743
-1.95058
-41.4073
-19.8261
13.0044
61.1741
-45.1202
12.5301
-10.5121
-29.0233
0.929183
12.4676
9.52881
6.95287
7.8921
-27.8206
-3.60941
-25.0563
-42.8051
-35.5474
1.52953
-45.2957
-3.33817
11.3444
-53.736
14.7467
2.79688
19.144
-0.231174
11.4844
-4.78219
5.96306
-55.5227
6.76128
-1.14675
-99.1388
-0.206489
-43.0341
17.2969
-59.1286
4.88947
15.9754
10.2629
-34.1297
11.424
-2.56275
13.5092
37.8524
-20.6126
-0.243863
-62.3868
54.15
-6.45341
64.4667
-3.28497
0.897653
-25.725
-20.7138
-47.0937
10.9615
-1.02831
10.4525
-0.174717
-3.68502
12.6107
16.0276
10.3567
-44.5927
-3.26699
-62.2806
-41.5412
-0.590598
-2.04714
-30.0925
11.0184
-35.9537
4.10138
-48.9921
4.57733
-28.6338
1.46572
2.21198
-38.7288
10.3899
-18.9723
56.0502
2.13992
-4.2191
-3.98671
46.4692
-3.33013
10.9917
-12.1965
17.9502
11.3733
-53.6337
-42.9298
6.37601
4.4718
-59.0453
-8.30986
-23.1
-37.2178
-0.923018
-38.1133
-3.58639
14.0093
12.0076
-24.9325
-16.4353
24.7809
-12.7701
-16.5165
-2.04949
12.2304
21.6429
-39.1796
-24.84
-28.3875
-2.7919
-44.4462
1.01404
-14.4861
-52.8051
-38.4632
8.97887
-1.5624
1.44136
-1.81738
-0.78922
-13.3818
34.7127
10.9283
30.9489
-25.0892
23.7443
29.7657
14.8137
-39.8267
42.0281
22.437
-0.643996
11.1244
-0.564949
-4.80782
16.5821
0.00737572
6.14056
-47.5155
-25.4998
45.42
24.487
14.4864
13.6425
-12.641
-38.6466
-39.985
-2.28828
26.7519
41.9114
12.5929
-40.7959
-25.162
-2.77628
12.7514
0.198475
-4.78367
11.8644
13.1623
-32.4192
-0.926294
-13.1403
-10.8289
52.7175
-38.791
5.09357
-14.3166
1.76827
-2.61107
-1.53518
-92.8466
0.332065
-16.2774
19.8662
-0.330368
0.103062
-37.2939
-8.10803
-0.770516
57.3015
-64.003
-3.27723
-8.71535
11.4256
1.2706
-6.2845
-28.6399
-46.7963
-28.5405
-40.3744
16.8153
1.49204
-8.80418
-10.2569
-5.13023
7.53136
-33.2573
9.13913
9.57245
-38.5779
-0.40726
19.417
11.2693
-0.434456
2.66004
2.03462
-28.6223
-17.4438
3.26585
-9.651
13.054
-29.1788
-16.1112
-26.1398
-6.897
11.3748
-13.6464
4.47634
-46.7081
-28.6751
12.3364
-37.6582
46.0501
1.44496
-22.1677
-13.9311
20.8841
-12.0445
-54.4617
-29.9414
-21.8561
13.4593
-0.844872
-0.00295337
36.525
-53.2293
-0.190441
-62.3506
22.9753
-13.4519
-44.8356
-1.71434
23.0157
-1.40189
26.5957
13.0204
-11.8672
49.5541
18.2355
-11.6178
-1.91584
-5.664
-8.07597
13.4042
58.1629
-40.9482
7.75467
-2.35745
-28.5587
-2.77485
-30.9076
-2.59106
1.32762
-27.2546
-0.191504
3.23963
-4.88657
-20.485
23.3357
27.9711
-0.372862
12.4601
11.8975
8.60238
-24.828
-42.1517
-56.4184
17.1139
-1.46419
64.6493
8.03863
-26.332
-1.69942
-20.45
-33.207
-8.09598
11.902
9.76716
11.2381
22.7208
10.5067
23.3442
-3.6885
-7.95859
5.02444
-4.16864
-1.08424
17.3532
8.62232
-28.8204
-3.0056
-28.3215
-17.781
-2.05846
-6.66255
-1.30884
-6.69687
-5.21674
-0.0739168
8.77535
1.23642
-26.1847
10.7202
-2.02443
-47.0045
14.5933
15.9371
9.38556
-3.2503
19.1456
2.58037
-47.5772
-28.5998
4.50431
4.89749
-14.758
12.0469
6.71173
7.99076
43.7775
9.94504
-0.277675
-29.6563
10.9907
0.693422
-4.30655
-14.5868
1.4636
-2.74565
32.4057
-49.6306
-27.573
-6.83386
-2.84274
-8.95393
1.32285
-58.556
12.0488
16.9048
-13.909
-43.1143
-6.34513
3.5878
-54.9869
-3.27479
-37.2221
-57.0266
-5.84994
4.27968
-3.72295
-0.831945
-30.9185
-1.71442
-3.89874
-13.8782
0.257275
-46.2723
-37.8299
-2.48757
-6.69176
-8.66049
-22.5159
-27.9708
-8.84662
-6.20282
3.31686
-46.2585
6.99198
0.264345
-0.456545
-4.16101
2.97083
-13.206
-30.0984
-4.95365
12.9723
6.98992
-9.29429
-23.5347
-17.6147
6.18024
-9.05715
-41.7735
-44.19
-37.6192
25.3673
25.3248
14.4509
-2.40115
-15.8916
-11.8032
-49.5621
-0.825744
-23.4431
11.6317
-5.46116
2.83026
-13.8723
-8.3056
-30.0673
11.3019
-2.99809
-2.35556
12.2528
8.26117
-0.230234
2.80502
13.222
-1.00583
-13.8814
-50.9835
-24.8644
-3.78757
-3.05522
49.7532
-11.5582
34.8401
0.156396
-18.3246
8.95287
-44.1312
16.1835
50.9253
-4.42845
-0.136761
18.307
-43.9129
-6.43655
-28.5064
52.7177
43.9365
-1.79335
-54.534
-18.9243
26.8226
13.0027
10.6733
0.0642271
-37.1826
0.144555
7.99334
16.7923
-42.3872
8.6025
-7.80416
-30.7531
-50.6844
-18.4999
1.57892
-2.8692
-8.85417
13.3558
-26.742
11.0576
11.4774
7.19267
-5.75509
17.0895
-18.3125
20.1927
11.2007
-7.78178
0.0878043
-39.7607
-9.06365
-38.7282
-6.90873
-3.35928
8.70261
6.65324
5.27228
-1.61588
13.2276
-37.0939
-28.1474
9.65159
-48.4809
18.3239
17.4242
-4.74659
-3.43792
8.90257
-10.6065
-18.8808
-13.58
32.6698
-18.0399
-36.4352
6.2978
-0.671257
-1.03481
-1.44578
27.8689
-27.7689
2.86985
-17.0655
-1.792
-4.63359
-32.3833
25.1247
-0.427112
-8.78835
0.726844
-1.58855
-43.7061
-18.162
-23.951
-31.6758
29.168
24.6249
-45.4802
-25.3679
-40.2099
-27.0703
-47.3215
-9.03953
30.985
-32.024
12.7342
-12.2293
5.96433
-31.1382
-0.276834
-30.2939
-34.375
-36.8843
11.3318
-1.48108
2.02251
13.1279
-4.15603
-37.1143
0.690368
-39.7987
7.30135
-39.3195
-0.324406
12.9215
11.5655
39.4372
-24.0298
6.94311
11.0963
-62.246
-67.4416
20.8979
-28.0551
5.60583
-39.4425
11.4534
-75.902
47.0651
57.8511
26.5339
-8.89934
7.49638
6.27819
-28.2909
-29.7944
-19.5518
58.5977
0.206731
-1.51291
15.9391
-5.09214
1.49561
-28.5571
-47.3539
-9.83205
10.0016
6.64845
-39.6672
-50.5756
2.55122
-28.4973
-1.20435
7.65973
7.40868
-7.30506
-7.43466
39.4448
-4.07173
-57.4746
-11.5465
-41.5486
-1.60676
-39.8204
-1.9477
36.865
-29.9087
53.4876
-26.3042
-0.312594
-36.8218
19.062
16.0491
27.9634
4.50503
-48.5604
-67.1453
-16.3315
-0.614854
9.33137
-30.0846
-61.437
-31.4425
-25.9114
-3.82411
19.8811
-31.5014
30.6986
-28.359
9.74644
-81.733
-26.2971
-9.10924
6.71673
18.1233
-28.7749
-1.81778
43.79
14.6435
4.04904
-37.1596
-7.33337
-0.0891873
-13.9199
-47.8379
-1.99876
9.98759
39.7914
-0.318781
10.8139
7.48074
-5.22342
-36.4138
12.3531
9.63557
-33.2763
26.3187
22.4683
-57.8647
-24.2478
-11.6596
-11.7183
-34.4382
-3.51985
1.04801
-1.2572
39.7736
7.13575
-0.890259
-2.17442
2.92193
-23.7368
0.57862
1.31092
-3.79525
-34.2122
7.97532
12.7294
6.82219
24.4966
11.2191
-4.05339
4.78083
11.296
-38.9374
-19.2835
-0.230894
-4.2662
2.95085
-30.5684
1.47604
4.20035
18.1395
23.3071
-24.5186
3.1567
7.19383
0.00765296
-7.01402
-12.7962
19.7383
-11.653
4.84325
-41.0672
4.33787
-42.6079
-2.91865
-29.1168
25.1368
-0.291614
6.74484
9.87517
-15.4118
26.5444
11.3131
30.098
-40.47
-0.100872
11.0175
-19.2851
12.7346
4.78184
-8.82083
8.81309
20.0636
-3.61955
-41.2664
6.33564
-7.14423
8.10847
-12.562
3.97923
-0.223252
-18.2421
5.38328
-0.196405
-40.9119
4.3131
-48.3627
3.88056
7.76713
-45.4282
-11.0634
-3.32679
10.1799
21.5244
11.0778
-0.686829
-4.23137
40.6847
-9.5069
-0.757238
0.406215
-0.739596
-15.8261
3.58808
2.32063
7.00048
-2.29993
23.5967
-33.8301
2.1244
23.8566
47.9358
-8.35581
15.4541
-32.4627
11.6853
14.409
25.9208
-26.3881
13.253
12.4029
-1.74464
10.9969
-24.3327
8.25771
36.6974
6.98013
-56.8196
-9.98774
-27.0811
11.8603
0.0104075
-2.62324
-28.8686
-0.413103
6.68885
-47.6817
1.82079
-0.975424
-49.6501
-1.12423
-1.74889
-0.142742
-20.649
-0.0446988
17.2665
-3.78881
0.0760551
9.60874
-36.5902
5.91026
-0.220401
11.322
-1.37778
60.0584
-19.7735
-0.549751
18.8519
10.1406
-21.4172
0.265336
12.0944
-26.1202
-9.00807
26.7953
-1.88229
3.7719
19.0502
-0.175282
-5.65067
1.20015
0.128078
-0.650126
-21.724
-20.963
-11.109
-19.8643
4.37063
-27.7326
-39.8918
8.48312
-15.2376
14.7776
13.5218
-0.315782
-22.6554
8.31339
15.4942
-43.9783
-10.4899
-33.6929
-20.9548
10.8415
-28.0064
-27.9282
10.4371
15.8868
-29.5274
-14.3826
-29.5891
-41.5883
-11.912
-6.39557
-9.87803
31.1118
-4.46119
-23.8218
-1.3366
0.00225592
-13.4866
21.8358
-2.7554
-20.7161
-11.4403
2.79415
7.75169
9.55959
-12.1184
-31.0707
-46.4752
-1.83913
-37.0995
10.1531
54.3021
5.13441
-22.1117
-31.6864
-2.58917
11.6262
10.9243
46.7102
5.52368
11.0098
-57.4773
-9.47052
-17.7995
57.2682
13.0871
15.1046
-29.758
-23.9039
-39.9701
-46.3503
-0.163975
-13.6923
17.4569
-10.8701
-0.529768
26.9106
5.29319
0.879938
-25.5092
13.7096
-2.52723
-0.341265
14.4052
6.37821
-37.5164
-4.50285
-0.642719
8.69795
0.232001
-19.8802
-9.44079
-12.2403
-54.7925
-32.9175
-1.83834
-65.7773
12.0654
55.5709
11.9119
-58.6575
-7.35636
20.5648
-0.182792
3.17847
-64.5692
-0.702887
-30.2827
64.2795
55.5998
-2.36498
-35.2345
-55.1814
5.06821
3.6023
-4.76336
55.3911
-5.19013
8.35703
-0.11405
10.2923
10.1193
63.5757
-60.1871
-10.0476
7.48331
-10.7178
-1.34909
-1.40522
-58.1148
-2.58149
-14.7301
30.3943
2.53923
-2.00676
-2.29739
16.8031
-4.07576
24.0922
-9.83244
12.7633
-0.189928
-21.0185
25.6749
19.0811
-1.35618
-30.1882
-32.8939
-34.0064
-3.35223
18.6243
-5.84235
-4.46883
-40.0882
-27.1913
4.39359
-47.0257
-13.0893
-3.01885
-10.4478
-3.17962
-9.76862
-62.9521
-5.3474
45.7466
5.36819
11.468
42.1536
-11.7182
28.1009
-29.7015
-8.43468
13.1353
-0.573547
-46.759
-16.1668
42.6021
10.9075
-32.9134
13.998
-16.0553
14.2398
-28.5621
-6.37366
-40.9878
32.5717
-0.383125
-1.57698
-26.0325
0.232626
-17.3186
-14.0235
-7.09605
0.181682
21.2222
-28.9304
-28.0849
-52.8896
-36.0244
6.95103
-17.7533
33.3657
11.5178
2.65797
-28.9063
12.6612
-0.568944
0.46711
-23.4969
-1.21666
-29.1838
-0.0276696
2.37641
-12.9276
-36.4225
-10.8397
4.29097
-11.2726
-17.3436
-6.53781
-31.3372
-31.8399
6.06804
-11.997
-30.6782
-17.6206
43.2428
-31.1544
14.2835
-41.1701
12.6152
-45.1352
1.17259
0.903518
1.69631
-7.69385
7.9896
-24.8895
-35.2289
23.4006
-38.0941
-28.7101
25.5718
5.57157
-16.0918
11.6277
-11.153
1.94818
7.82401
-29.9671
-32.9282
9.49979
-49.897
-33.618
15.5112
-29.3011
7.89116
-0.382355
-13.8787
-0.847232
-10.5645
16.2742
-34.8791
9.04466
-16.8367
-63.0629
10.7291
1.48342
9.86536
-26.3553
25.3112
0.0599237
-12.416
0.226246
5.12169
-6.3679
-19.9744
11.682
13.1783
-4.04496
-64.3199
-4.5366
1.41727
-81.9056
4.27026
-16.1393
-3.06718
-27.0387
-31.1298
-44.4052
-19.6044
-0.492342
-10.9451
35.3398
-3.27077
-37.8622
-17.6573
-0.234373
-25.8175
-7.4311
39.1765
13.0802
-0.731816
-45.3912
-1.4136
-9.41324
-0.360291
-1.44606
-52.931
16.8868
50.7844
-6.48424
-29.8739
-11.1913
-0.559067
-57.0579
11.9318
-35.5428
19.6111
53.0923
-6.55181
11.5762
-1.8643
30.8702
-1.77077
8.04826
31.3111
-3.3245
-3.82907
-9.19464
-42.6307
-11.5076
12.1476
47.0994
11.6297
17.8831
-29.2731
15.1967
10.0481
-20.9082
25.8802
3.12341
-6.78042
2.56162
27.5276
11.7337
-20.1115
-5.84231
-11.2214
0.141683
-3.82098
-44.6688
-30.7526
5.35827
65.0749
-52.0522
-11.7019
-21.6026
15.8794
-29.1618
21.6611
1.31466
43.1471
39.9647
0.087754
50.4315
-28.9667
29.4726
-4.10749
-55.2644
-2.10828
-1.56941
-28.6063
40.7115
-10.2144
-2.09526
-14.2846
3.07426
2.12475
1.10592
-29.8308
4.15923
-1.53925
-3.47576
49.3591
-59.6431
-31.2357
0.961679
-42.1833
12.5644
-11.8644
-0.568942
-12.3372
0.213593
4.21051
9.48074
11.6891
11.8017
12.4303
-31.5431
-15.8372
-6.82348
35.1549
16.7304
-1.99468
11.2624
-7.07125
-38.0301
-9.49677
24.2185
-2.54384
-1.26912
15.1675
-1.58245
0.76465
3.38789
-0.637522
1.23918
-51.8562
-2.47425
17.9869
-44.5017
-20.2011
-50.827
-25.9586
2.16588
7.57933
-15.3412
12.3463
-14.1577
12.7171
-22.615
-4.66418
20.6388
-47.7427
-29.2367
17.5343
-11.7652
11.9107
-46.7797
59.9015
-13.2656
-77.1694
33.6672
-36.6332
-40.0569
6.47287
-30.3948
11.7582
0.22949
-44.6803
-10.9553
-0.953696
45.1825
-36.6043
34.5533
-32.6126
12.6542
-0.594249
-1.91076
-28.8181
-44.4092
-3.5983
58.9529
3.4961
-11.943
-49.536
-20.8241
-0.9047
-29.7871
-28.4306
24.5691
11.1934
-42.1646
47.2014
-1.45817
7.51637
7.09161
14.3897
9.57011
15.0583
-0.180103
-18.6144
19.9179
0.273953
-6.82672
20.8994
-2.43282
1.55397
-7.30576
-10.8914
-17.8082
-33.1637
-8.24066
-8.4903
3.75569
-10.3182
-36.1839
-28.6176
-28.2148
-14.6239
-14.7853
-20.515
1.30987
-1.20052
-28.777
-17.8762
-1.03625
-11.1695
37.0925
-42.6292
-0.418451
-7.9573
8.53354
-53.1281
-0.868441
10.8091
-28.5406
1.34595
-37.9851
-1.9372
-19.2063
-0.193514
-17.478
14.0384
5.35235
-7.98221
0.891689
11.2206
-29.335
-3.57505
8.10966
-37.3285
63.6311
-11.7605
-3.78074
4.51724
-3.67547
3.23905
-0.42542
-2.40604
-2.42422
19.8985
-29.8089
-0.184364
-0.944454
-30.8346
10.9544
-12.3372
-6.58965
12.9467
7.25246
13.3443
-23.9176
-14.3321
-83.5197
1.17009
1.11233
0.360641
-7.60401
6.56075
-0.785833
4.44946
-27.543
2.64077
-6.66421
-15.9838
-16.3064
-1.07196
-10.1727
11.7073
1.57491
-0.10012
10.6044
-7.75514
-1.1256
-16.2164
-15.3115
-0.596011
-6.32378
-13.5723
-2.14078
-47.8056
-24.8733
21.1123
-25.3185
0.194134
-2.20446
3.12009
59.9067
-1.35701
24.2322
-22.2409
13.3996
-2.51516
37.7791
14.8124
2.98681
51.3038
6.67918
-0.691448
-22.1905
-2.93997
-24.7559
-47.2295
10.4006
-38.0938
14.0205
-6.92522
-53.4949
-48.9627
11.6583
12.7061
11.5091
-4.91245
-55.1815
12.8547
-23.9284
-1.43073
46.7962
-2.95472
11.6853
-79.9559
-20.9676
40.0291
7.99388
-9.70612
-27.3554
-2.28875
-4.46827
-11.5108
3.04859
45.0062
3.28885
-17.6163
-16.5237
-34.8906
-0.240369
-0.0350779
10.497
-16.6862
-30.5644
-14.7231
-7.00214
-12.7061
26.0168
-0.665415
0.864483
-1.64905
-7.0051
-0.661198
11.9669
-3.89055
-0.639477
48.4566
17.1874
-4.92393
-6.82476
-0.52257
2.0107
-10.9292
-36.5902
-71.7404
-8.38594
11.1363
8.34393
45.1381
-0.791683
28.3238
16.432
1.80082
44.4809
-37.1162
-3.15064
-22.4345
-28.6085
-12.9527
7.30603
18.1728
-1.3319
59.7136
-4.91184
-31.9012
38.0181
-21.7715
-21.6299
4.66743
25.7798
14.3686
-27.1031
-28.6578
0.936103
-1.00252
18.7227
0.0102136
-8.91868
4.15284
-56.0682
-2.03846
-17.2646
-13.9523
23.2995
-3.04916
1.39588
0.560028
-52.146
0.769561
-3.04044
11.2879
-0.0554195
0.4125
-25.4717
10.0672
-0.681476
-51.963
-3.57825
-0.259126
0.666978
-5.22656
5.34701
48.7363
-28.7399
-5.07577
-3.9867
17.3905
56.8161
17.2303
4.2781
26.3784
-13.8051
11.326
-17.0906
0.0457022
19.3982
-32.8205
-36.5436
2.92438
-38.9166
-38.708
18.6028
-29.7295
-14.5665
-0.660925
8.5047
-0.472496
1.32793
-47.1139
12.2408
-28.201
-0.773696
-34.1594
-22.7751
20.8093
13.4957
-3.18284
-5.20567
16.5248
3.57254
-14.9352
-0.262849
13.3291
-50.5327
-0.291192
-0.592598
5.88655
-2.78645
12.6441
-26.1657
11.7064
14.2781
-34.6058
-0.213665
-43.9769
-36.8557
18.9274
-28.7251
1.86215
-0.399189
-58.304
-25.83
-29.6736
-1.66993
23.3559
-36.4298
-29.7679
-7.11828
-0.727802
-0.623645
-44.4986
-25.4171
-7.01232
-28.5381
-33.7746
-8.08071
-30.8963
-7.36817
27.6372
9.34236
1.50078
-5.04472
-12.3245
7.75716
-17.3816
-8.33198
-35.7641
-2.58181
-51.4917
-5.89138
-0.0812337
46.3003
-6.54217
12.2108
-54.1904
-33.8874
11.3102
24.5869
-47.8561
-34.7281
-13.6131
-2.74169
10.5134
-30.302
6.63217
6.11235
3.30048
4.96506
-0.674811
-0.238824
-28.6079
-38.2152
27.3647
-12.6435
9.04113
-0.630317
-33.6918
0.704023
-34.4733
-9.0703
0.314293
12.0774
5.08964
11.3988
-32.8035
15.9602
-57.8452
-37.0573
7.10556
3.21861
-6.0494
60.6383
1.02037
13.4365
5.93629
-16.1532
-6.52316
-1.63063
-20.3382
32.7905
-27.1471
-14.6076
4.41863
-2.37055
7.29247
63.8237
11.4628
-0.869491
3.5107
-7.03253
43.3209
-44.2719
-9.41472
-1.78722
-24.1983
34.4647
-23.1002
-0.791048
0.366907
-44.2784
-24.6422
-5.81602
-9.61691
-30.5147
-7.47897
-24.5064
-0.61387
8.52816
62.4332
-1.15885
-29.5825
8.9525
6.24473
11.467
16.9102
2.39696
-2.52977
17.3802
10.7535
-9.46562
-6.62808
11.8309
-12.2752
23.2551
-10.8539
-35.6929
2.57518
-20.683
-8.0676
14.241
-1.36865
-0.155152
38.3808
-22.0589
14.4258
-28.9481
5.99595
2.64631
-4.54409
11.9805
-6.27534
1.44498
-5.97453
8.29815
-26.0388
-0.792211
-0.423943
-22.5042
-54.6173
-38.4519
-23.2679
-10.9605
20.4531
-2.676
-8.78274
-0.136644
13.0029
-35.8159
13.1035
2.74461
-36.6025
-60.7597
-25.7246
-10.6425
0.148083
13.0651
-20.6408
4.32303
18.7827
-44.2501
-46.693
-26.5886
-9.20538
-1.15368
0.497881
-6.88021
-28.6744
-42.2879
0.796704
-11.8817
1.27176
31.5505
-11.2335
13.4068
14.5202
-35.1176
6.70583
28.8931
-22.0245
-0.552219
54.3853
-17.864
-39.5274
-38.8916
-0.129169
-1.9461
7.29269
-19.879
-29.0098
8.53953
4.70837
13.4243
-1.47633
12.7865
-63.1634
-1.14882
-41.7221
-0.595831
19.5506
-42.8152
12.3561
3.24823
-9.92386
0.0224173
55.1489
-48.2337
-38.8714
12.7304
0.358442
-24.4493
-38.9411
-10.3211
-24.4358
18.61
-49.633
0.332676
62.2551
-39.6536
42.8607
-0.694568
9.88701
-11.6267
-29.3979
-0.0956954
7.12381
12.6704
-1.21093
-46.9305
7.22424
13.9695
-1.63516
-4.67524
57.509
22.8397
-3.65083
-1.67545
-25.6391
-52.3631
5.35148
-4.82193
12.5163
3.32738
-0.367964
0.840196
-2.51355
0.594364
35.0502
-0.18307
-46.1882
-8.79093
16.7422
-40.2665
7.43736
11.574
-22.4949
11.7368
-29.8344
0.0285785
-32.6057
-22.679
-34.3814
-20.4189
-25.1293
-16.7604
7.27848
-36.4275
4.70658
-4.9618
-4.01483
-55.2409
17.6521
12.2782
-30.4331
-5.06539
-17.7329
-58.1467
14.8132
-13.013
32.638
-0.621554
25.1414
-27.2864
-29.1802
-17.8467
-42.2936
31.1452
13.3098
-33.5204
-0.22187
-47.1226
-1.20702
-1.90151
-98.4004
-32.7007
36.0652
-0.986484
-5.33362
8.009
-18.7821
-2.72033
17.9582
-4.21503
-52.5172
-14.7062
-13.3601
-4.14934
-39.128
5.71951
26.4768
-18.8488
17.1688
11.5535
-19.1167
-10.539
26.8807
0.896251
-3.33243
43.9577
-2.45035
1.4537
-62.4521
-44.0299
19.3793
13.9709
-22.5512
-2.48096
2.70171
1.26757
-21.0178
-55.6451
-18.3026
0.537237
-2.2897
-5.25291
-27.5848
-0.810112
64.2897
-3.79385
-0.426558
-44.3895
24.4121
-30.0879
4.6965
28.005
-28.1815
13.4685
-1.22106
-54.9925
0.242307
-1.20032
11.3624
-10.125
-0.0451203
0.105052
-1.03599
-22.2538
-1.33808
15.2407
-14.502
-18.426
-6.57332
9.18889
-0.954494
-13.0131
-0.0183923
-0.574103
22.1118
23.1502
-15.7616
30.9465
-34.7607
-22.1277
2.68507
2.72889
17.5727
8.68993
-4.83317
42.6084
-19.3407
-0.820179
0.827197
-11.0628
-10.6556
-4.71156
-3.1566
-47.1454
13.1931
-2.04649
-2.89778
-10.7006
55.524
-50.2291
48.094
22.4789
3.99649
-8.44232
7.68295
-24.9291
-2.56103
50.4185
-0.906916
15.1955
-0.951288
-0.495208
12.9014
2.88259
17.0055
-48.9071
7.82852
-10.6916
-46.7224
-0.723388
9.12301
-43.7645
2.01853
-0.580582
-1.80687
4.1552
39.8849
-7.77556
-33.844
4.82614
-25.6315
-10.2866
-10.5578
-54.0542
1.12943
-2.42954
1.17036
-8.70477
-0.00786034
-24.1412
5.14879
37.2187
9.18589
31.12
24.7665
-0.660708
10.1567
-10.5295
-2.76795
-35.7537
-34.3848
47.9202
-16.8744
5.43248
26.9423
-7.60417
-7.61996
-47.6193
1.26458
-13.3937
-17.3415
46.9821
12.3539
24.9353
-0.489999
1.81864
20.2433
-23.5614
10.6794
-1.2996
-21.0666
-0.137909
-0.15261
-9.05503
-3.28837
21.1528
-37.0522
-12.2524
-55.9777
-27.0026
-3.5113
-28.7317
-2.93846
-3.24546
-0.525086
1.8762
-28.5544
-18.8647
18.0727
-2.96188
40.2525
16.7601
-0.666589
10.1864
-0.287163
-31.4018
-0.505293
20.2027
-2.86273
-28.7446
-31.9728
47.4694
45.6861
4.78804
-4.64691
-0.363236
27.1052
-84.6726
10.805
-1.79632
16.4958
-1.43069
-23.1154
12.6467
-27.6451
16.9548
7.07529
1.24344
-1.28992
-13.0082
10.0179
-7.31932
2.86168
22.0829
-48.8597
-33.2706
12.5979
-1.09958
11.3653
-2.7879
-10.1644
63.7583
-36.6314
-17.6543
9.76326
-5.48743
-40.4638
36.3099
-34.3034
19.7492
-54.5161
-29.9932
-15.0705
0.186916
-10.8999
8.44083
-27.5507
14.7321
12.3498
-50.7432
-16.0835
30.122
-2.28072
-0.144795
-45.1057
-12.3888
-3.88926
-57.5182
-10.1809
-4.10294
0.152307
9.38467
-5.49756
6.38665
12.5183
-30.6204
-24.2209
-12.4792
0.756878
-22.1002
8.98932
42.5686
-13.2896
14.7029
-38.9143
-0.3614
14.2222
-52.0139
-1.02042
53.8309
-48.968
-26.3082
-45.6942
-6.78174
14.5978
-31.9744
-1.02821
-70.0578
-0.285489
5.41884
2.90247
-19.002
-1.03606
11.2466
-24.4026
13.8912
16.4009
-8.89289
-28.8257
-5.69241
-4.22869
-0.608332
-9.64742
10.3096
-12.0568
-3.13352
-8.66502
-2.78242
-1.15106
32.2551
-40.1597
-22.4792
-8.80463
-2.67881
21.1212
-28.7066
-0.454526
41.9449
-11.72
62.4844
1.03807
56.0271
-48.7717
-10.6916
31.629
28.9335
-32.845
39.3448
-32.2912
-14.1563
53.2034
-19.2442
11.1388
-15.3185
-25.3886
-3.92168
-48.9384
11.4094
-1.56417
3.24059
-8.84692
-45.1527
6.6913
-2.24687
-1.80564
2.91555
-0.259651
-0.873426
38.9339
23.8321
19.6912
11.235
-5.02389
-3.12007
-0.262541
-36.8223
-1.83139
10.349
12.8237
-20.1031
11.829
-50.0486
61.1494
-8.27333
-34.8386
0.191566
22.5301
-1.44299
-19.6267
0.614525
32.8696
-1.66121
-36.8534
-0.385831
0.395037
-30.5738
-23.3484
17.7202
-6.8389
8.28225
-30.0448
-11.1978
4.33452
10.5945
10.8446
-0.828817
-18.6806
-30.4994
-1.59852
17.331
-8.86496
7.03062
-1.53764
-21.8461
-38.0853
41.1939
-49.7341
-1.14712
34.5414
-14.8555
1.12226
-2.76874
-71.8035
-28.3292
-5.03107
4.26633
31.4606
9.3369
-8.03411
-6.63243
-38.5105
-29.7299
-1.13051
28.9857
-1.92289
9.71886
3.05404
-0.308671
-18.2752
-38.6093
-6.48051
12.6581
-3.30084
-63.102
18.3762
22.6602
-4.92493
16.5519
-1.18171
-5.90425
28.549
-1.30268
-2.03431
3.24604
-24.6817
-7.52138
-0.00545426
-0.30027
-34.0305
-28.5334
-8.46581
4.85874
-0.328668
-4.56179
16.1064
-28.9968
17.1846
-50.6227
-4.78315
35.4479
17.7365
5.28563
-1.1765
45.1056
-54.5493
-32.4438
12.8732
-26.2336
9.98688
-3.49146
-4.43175
-1.06214
14.5012
-1.54848
51.1346
-16.2412
-2.67434
3.08448
-6.35091
12.6522
10.6987
-26.6239
-27.3867
9.29743
50.5527
5.5522
22.2836
3.20559
-23.5856
24.3399
12.1577
-8.62918
2.6761
17.6395
-3.40791
-28.3866
-2.75598
5.51191
4.71751
-10.4946
-47.3389
-45.0417
7.60037
-17.5913
55.2948
13.4992
-54.1591
-2.75467
-26.3533
-39.9537
-8.52296
19.674
0.885665
-18.7459
6.93766
10.2479
-1.0675
-15.5367
-58.4087
7.51108
0.374363
14.843
6.41195
-34.1772
-30.9933
8.17465
14.5659
-4.49984
2.02458
-1.44353
-9.33753
38.391
14.0929
-44.1212
23.2929
-0.564913
-30.5623
10.4131
-26.0485
-38.1067
-10.6599
10.8905
1.25114
20.8028
-23.2903
7.82327
-35.5154
-38.1948
-15.6693
47.8997
-20.0666
0.492164
16.5373
10.9998
-24.2352
22.2199
-0.667134
8.94518
-23.2983
0.315041
-19.0008
0.924908
43.4315
11.8074
8.25897
-3.56705
-44.3898
-38.9579
-37.9419
-4.92621
-0.177518
49.7625
-62.5359
9.12773
-17.4744
17.7597
-13.4237
-9.42099
16.9642
15.4637
-13.4189
-0.824747
-5.8184
59.6944
-35.316
11.3068
-0.635809
9.92002
-2.20745
45.7601
-9.73835
-62.5712
-24.8542
54.9846
14.9213
-9.56961
-7.81456
-34.8998
-10.4952
-16.0524
-37.9424
-10.6739
8.01358
12.0361
-5.11066
-0.058678
45.8935
16.2039
45.8914
21.3171
21.607
-38.038
-12.5545
-5.74907
-0.361529
-27.6931
10.3965
-42.2168
3.63789
-36.6086
-5.15327
-3.36335
-5.53523
-34.9495
0.759276
-26.1762
-36.7885
-53.3085
-0.144441
-4.5435
-28.6721
-1.61467
-4.33943
12.7796
-13.8843
-3.73056
-21.9435
-21.7974
-25.9734
-6.45825
35.6108
-35.1818
-1.19421
-3.51759
15.9314
-47.0893
-0.704049
0.472616
0.362367
-1.39391
5.3917
5.22498
36.307
-37.0191
12.5071
-28.9993
9.84233
-0.200826
-9.9297
-2.37418
-19.1602
-0.813695
-34.6295
-46.8053
-27.9373
-56.2806
-3.81151
-27.2412
-1.28987
-45.3734
-15.9095
-39.6506
-0.756427
13.2943
12.9114
8.15731
21.4987
-48.9241
-23.7803
-35.6279
3.48439
51.328
-39.3448
-18.8196
-0.764974
-49.6228
31.7637
19.2092
9.55957
15.5267
-53.6121
-1.46032
12.1793
-3.35581
13.971
-29.0081
-18.2731
-18.8673
-28.4268
-2.50993
-5.19692
-51.0781
14.2805
-40.3237
-26.4302
-18.5478
33.4606
-10.1149
-13.6064
-13.5553
-22.8613
26.5428
-43.3586
-12.8792
-45.6917
3.22816
-41.1577
1.7825
-7.26621
34.9797
-17.4997
-34.3739
10.4617
-1.90996
23.0227
7.69947
-0.0499934
5.6092
-28.0771
-0.322168
3.70119
-13.3636
-6.37996
18.3577
1.44946
17.675
-6.63318
-1.78408
9.17887
-56.308
10.4764
6.99114
-37.9886
-30.4085
10.6618
25.1447
7.1543
-22.2869
-3.56824
-60.3483
9.62094
1.06382
7.05455
-0.640489
10.4459
22.6202
20.1638
-6.03426
-14.552
8.4337
-17.6552
-41.4881
-27.5032
-47.0033
-61.0343
-64.0342
0.186632
3.18027
4.27204
-23.0073
-8.20631
-0.687945
-6.92244
12.1778
-6.31993
-30.5612
0.261793
-38.7673
-1.38058
0.0163725
8.58173
12.0851
10.5573
-1.30319
-28.4377
-22.7581
5.9819
-95.2564
20.3378
-14.0754
-19.3503
11.9349
-0.565145
12.0646
20.9869
-36.9926
-24.2064
9.80143
8.10204
-29.3583
-22.4488
12.6765
-3.63884
-50.2978
-2.35925
14.6352
-10.4228
21.3719
-0.571062
-3.4097
-15.0168
-37.8967
30.7312
35.8545
-65.9815
-43.0149
-38.3834
43.8764
12.724
0.097944
34.9372
-90.6578
30.0677
-46.7713
34.4927
-11.0956
-0.574728
1.57158
-42.4988
-0.51081
18.053
-46.1834
4.67965
-15.0518
-0.565336
0.814703
-23.417
-45.2653
-5.50305
-11.1952
-0.248346
-58.2164
-40.7992
-8.03571
-4.61612
-0.660711
-22.3063
-9.5596
25.2161
-3.81561
-10.8206
-38.1495
28.0033
-46.1864
13.4737
4.81049
9.80123
5.86189
-15.5894
17.2485
-0.323945
-22.2322
18.7581
-2.98096
-2.92522
-0.654633
12.4965
-17.7847
-67.2865
-1.45645
-1.25619
-28.5577
-16.1656
-67.8534
-22.8693
-32.4897
33.6675
6.04771
-8.79332
-10.3918
16.6102
-27.7533
-5.74548
-4.5478
-5.81276
-23.9783
-0.15294
11.5551
9.50742
-6.63556
6.7295
-0.22688
0.0180024
37.5048
-28.0843
-29.0564
-3.11201
-2.47976
-20.6147
-1.23189
-77.9869
0.103564
-1.91623
-36.5761
-38.3271
-13.3054
-0.851506
10.1173
-62.7788
10.6071
-6.19322
-42.768
-47.2862
-4.51606
0.102095
16.2939
6.3966
0.613341
48.3062
-1.29562
9.98958
-1.08996
-0.0781503
9.41506
20.5564
-5.96071
-33.3393
-27.7454
-53.5534
-5.96912
20.8292
3.09125
-0.0839827
9.34287
-4.8951
11.3853
-47.777
-1.37892
-2.8863
13.2441
0.0387098
-54.3977
0.889336
-44.9822
-30.5294
-4.60121
-6.39375
-1.60291
-8.31451
-93.7594
-0.198754
-11.7993
-49.8858
-1.03385
-0.286125
10.328
-12.5921
-0.171196
22.8901
3.35682
13.9147
-7.93008
-0.0389578
-59.4823
-13.7276
-13.1692
-19.0073
-4.27064
-52.6283
-56.0319
-19.4406
3.46962
22.3041
-54.7853
-5.74368
-43.8671
-43.6974
-0.655825
-6.97211
-3.93465
-15.753
24.3517
37.1009
-41.506
-42.9357
-2.99137
-2.52846
-2.50767
5.5498
-0.341989
-9.19667
-7.35352
-15.4305
-7.9773
19.717
-19.578
-21.2672
-29.0043
-0.0949044
11.1088
22.0113
-98.3335
-0.0794128
-18.9856
2.05922
0.361783
-22.1886
10.4712
-4.90084
-15.5629
-33.393
11.3608
-15.5364
-0.922164
-2.09207
11.156
-8.75015
31.8907
10.6141
-40.9022
10.784
38.4524
8.74228
-10.5965
-1.28397
-28.5138
29.0032
6.70174
7.8618
-41.7128
10.8086
34.7845
1.61838
9.10426
-0.350047
-22.9897
20.2068
12.7156
-17.8981
-23.267
-54.129
-1.45631
0.143001
8.91082
-30.2665
-13.5514
-39.8832
-0.49107
-3.4302
3.60112
14.166
-12.9585
-42.2147
9.04092
-59.4429
-13.1179
10.8214
-37.4558
-5.3501
-51.1067
5.2359
8.46981
-23.2819
23.6071
15.6659
-12.7107
47.2
-7.81844
-27.4368
-11.256
-35.8189
-0.300237
13.8642
-9.70638
-8.13121
12.3328
-5.5167
11.1358
10.3403
-22.5876
-34.5583
-32.4082
-7.26608
39.5942
-3.97969
-17.901
0.286729
5.81817
13.6599
9.28302
-16.0067
-7.01208
-9.63883
45.9036
-27.3036
13.6341
-4.21657
0.975695
5.89503
-16.1752
-6.63118
24.6229
-0.938779
-4.48171
11.7304
9.40207
-3.60371
7.11197
8.7146
-32.1406
-0.570088
-8.27381
-31.169
-39.0272
-0.0369752
-57.9709
-34.9729
-6.30246
-18.252
22.0575
-25.9303
-5.18977
-20.6112
4.09912
12.0633
8.30624
-0.490133
12.3264
-2.62694
-1.72484
8.67551
-0.499708
-17.3913
12.7306
-40.3752
-66.5085
18.677
2.96547
5.61785
17.4694
-22.7364
-28.8155
-14.4332
-14.4162
8.90889
-0.707973
19.8747
63.7007
-50.1299
-23.5377
-1.11368
12.2143
1.88977
-6.18135
-0.587741
-31.5561
-12.5151
-31.1904
-37.5668
-7.36147
28.2219
25.2614
5.66726
1.9217
-26.7711
9.48249
58.524
-27.7049
-21.0447
-1.44022
-45.5697
-0.105066
8.00788
1.36799
32.2368
-32.1421
11.5377
-13.1607
9.62115
-29.9813
-8.74704
41.1678
-49.0434
6.9014
-30.0363
-20.5894
-17.8834
-6.51613
2.18148
9.70496
-46.5488
-5.50523
16.3122
-4.11052
-55.6882
-22.4215
6.90124
-47.4227
8.91746
30.0056
-36.3055
-5.26577
-1.57481
12.5386
58.938
-14.431
20.5335
9.20306
32.9817
16.3073
-47.7729
-16.4035
-0.0860746
-0.233592
0.0997067
-0.182423
10.0832
-2.94161
-28.463
-5.23612
-10.6123
-52.2082
4.68096
-1.89733
-41.6075
-5.18379
6.55396
-8.59481
-2.89377
5.01593
-0.624374
11.2169
-52.5755
-0.0949215
8.9206
-49.1597
-8.96811
-0.651139
-4.07532
1.22234
-2.65977
-2.22411
-53.8619
-5.2335
-6.54863
-43.7246
-63.0679
-7.59543
1.5531
-9.26174
-12.36
-35.4267
15.609
1.13935
10.0198
46.3714
-4.84044
21.4941
-15.6338
1.89966
7.76868
-47.2544
-9.12965
25.9911
-27.6912
-22.6063
15.4403
-57.4404
-23.1379
11.0193
-34.5172
-24.1965
11.6997
-15.1974
-0.638878
-6.90221
-30.1572
-9.34232
-58.7662
2.15255
-0.631206
-5.52826
-25.005
-48.5064
-7.0842
25.0493
-21.4
-1.97219