/*--------------------------------*- C++ -*----------------------------------*\
  =========                 |
  \\      /  F ield         | OpenFOAM: The Open Source CFD Toolbox
   \\    /   O peration     | Website:  https://openfoam.org
    \\  /    A nd           | Version:  7
     \\/     M anipulation  |
\*---------------------------------------------------------------------------*/
FoamFile
{
    version     2.0;
    format      ascii;
    class       surfaceScalarField;
    location    "150";
    object      phi;
}
// * * * * * * * * * * * * * * * * * * * * * * * * * * * * * * * * * * * * * //

dimensions      [0 3 -1 0 0 0 0];

internalField   nonuniform List<scalar> 
22555
(
-0.00201767
-0.0521743
0.07072
-0.0165214
-0.00237701
-0.000843335
0.00243073
0.00079148
-0.0216704
-0.00390441
0.0221984
0.00337583
0.00954515
-0.00174249
-0.0101734
0.00237002
0.0563289
-0.137294
0.0246915
0.0562728
-2.25877e-05
-0.00235251
5.14393e-06
0.0782755
0.0315165
-0.0795767
-0.0302184
0.0751515
-0.0576496
-0.0263288
0.00883193
0.0163387
-0.135945
0.114013
0.0055942
-0.0104704
-0.0192719
0.0217683
0.00797349
0.0424528
-0.0784487
0.0921681
-0.0561734
-0.0291936
0.00206614
-0.00849396
0.0356209
0.00377919
-0.0459659
0.0108846
0.0313031
-0.179707
0.14454
0.0366613
-0.00148903
-0.0986732
0.000281804
0.0981634
0.000242895
-0.00171506
0.00418307
-0.0087921
0.00631974
0.0724843
-0.0494576
-0.0366604
0.0136325
-0.0895352
0.0566515
0.0588869
-0.0260049
-0.0287842
0.0218534
0.0694162
-0.0624846
-0.0300942
-0.0728866
0.0318173
0.0711633
0.0104544
-0.0132712
0.0140888
-0.0112785
-0.110437
0.131391
0.125893
-0.146837
-0.00717863
0.00708095
0.0225572
-0.0224596
-0.00447867
0.00292032
-0.00163091
0.00318662
-0.0487739
-0.0785391
0.0102014
0.117111
0.0600128
0.080275
-0.0550487
-0.0852475
-0.00297438
-0.0059222
0.00602243
0.00287649
-0.0803605
0.017115
0.0140499
0.0491948
-0.0649873
0.0621869
0.0895874
-0.0867867
-0.0520239
-0.0820825
0.0618256
0.0722808
-0.0692221
0.0606231
-0.00512683
0.0137263
0.115766
-0.0973607
0.0843079
-0.102714
-0.0957325
-0.054491
0.0692715
0.0809547
0.0046204
0.0861986
-0.0834237
-0.00739537
0.00524492
-0.00522466
-0.0053684
0.00534816
0.187313
-0.0485277
-0.153627
0.0148401
0.11379
-0.140445
-0.0611223
0.0877755
0.0749241
-0.0374598
-0.163616
0.126139
0.0950535
-0.0300766
-0.119075
0.0541106
-0.0455106
0.0589098
0.0234734
-0.0368729
-0.0476672
-0.0491437
0.0590069
0.0378007
0.1159
-0.112842
-0.00645891
0.00340008
-0.100817
0.141498
-0.0461743
0.00549387
-0.00544485
-0.0192685
0.0175921
0.00712125
0.0684762
-0.0585582
0.0472227
-0.0571405
-0.065698
-0.0401655
0.0870512
0.0188217
0.0153863
-0.0982978
0.0564408
0.0264701
0.0036395
0.0128411
-0.0120128
-0.00445422
0.000572283
-0.000119423
-0.000844782
0.000386992
0.0497084
0.156536
-0.104987
-0.101259
-0.00565866
-0.0163725
0.0143116
0.00771879
0.0790143
0.0462327
-0.0817102
-0.043538
-0.0064742
0.00674614
0.0167168
-0.0169887
-0.0902949
-0.0157894
0.0981848
0.00791889
0.0313341
-0.0628861
0.0544212
-0.0228689
0.0640689
0.0517831
-0.0629613
-0.052892
-0.0125121
0.0150678
0.0201946
-0.0227503
0.00101949
-0.000406025
0.000216414
-0.000825093
0.14304
-0.0828427
-0.0104874
0.0253637
-0.0129509
0.00985833
-0.0222715
-0.0112668
0.0442783
-0.0281928
-0.00481917
0.0956803
0.0536879
-0.0913741
-0.0579779
0.179601
-0.0137563
-0.024341
-0.141503
-0.00465079
-0.00351999
0.00248776
0.00567635
0.0364329
-0.00581688
-0.00873114
-0.0218925
-0.169339
0.109555
-0.00477562
0.0645594
-0.0331532
0.0972931
-0.054076
-0.0100655
-0.011498
-0.00475229
0.0113413
0.00491441
0.00129572
-0.00494823
-0.0219203
0.0255727
0.0140738
0.00376516
-0.0125169
-0.00532761
0.0604044
0.0787448
-0.0364516
-0.102697
0.133247
-0.0403801
-0.085422
-0.00744234
0.063186
-0.117973
0.107159
-0.0523717
0.0192002
-0.0167346
0.100273
-0.102738
0.0246887
0.0512935
-0.0108433
-0.06514
-0.0528589
0.144946
-0.119599
0.0275123
-0.0125766
0.00845306
-0.00284365
0.0069632
-0.0695175
0.0118576
0.0583128
-0.000653671
0.0405388
0.14689
-0.123437
-0.0639902
-0.0374652
0.0209918
-0.00337049
0.0198429
0.010977
0.00421013
-0.0110807
-0.00410612
-0.00253221
0.0130777
-0.0123416
0.00179565
-0.00379208
0.00442794
-0.000636224
0.0176392
-0.021308
-0.0243544
0.028023
-0.0234562
0.0165952
-0.0237807
0.0306425
-0.0326946
0.0112469
-0.000394269
0.0218416
0.132949
-0.141078
-0.00238742
0.171315
-0.0242995
-0.0970726
-0.0499409
0.0219157
0.0357763
-0.0208131
-0.036879
-0.0240912
-0.0420811
0.0359045
0.0302657
0.0911979
-0.0657087
0.108844
-0.134334
-0.0360828
0.0400288
-0.0428373
0.0388916
-0.00428761
0.000216794
0.00189246
0.0021737
-0.020856
-0.0255128
0.0324948
0.0138739
-0.113933
-9.86995e-05
0.0616378
0.0523956
-0.0251361
-0.00724107
-0.000557786
0.0329134
0.0582036
0.0532757
-0.0523041
-0.0591768
-0.00044896
0.00330303
-0.0177217
0.0148506
0.00811096
-0.00168911
-0.00895793
0.00252634
0.0605317
-0.10705
-0.077298
0.123816
-0.117863
0.0381128
0.0934199
-0.0136694
0.0273099
0.0260599
-0.0247208
-0.0286486
-0.00779569
-0.0219608
-0.0721748
0.101931
-0.133091
0.0158893
-0.0257863
0.142984
0.0422846
-0.047897
-0.0669778
0.0725897
-0.00743825
0.000294058
0.000224335
0.00692
0.00189426
-0.00058949
5.29108e-05
-0.0013597
-0.085132
-0.0419317
0.0853083
0.0417552
0.124705
-0.10579
-0.0064099
-0.0125027
-0.0533375
-0.000274946
-0.00215364
0.0557661
-0.00489121
-0.071467
-8.74216e-05
0.0764451
0.00655727
-0.0564692
0.00679633
0.0431161
0.0273682
-0.0341569
-0.00591766
0.0127062
0.08813
0.0502015
-0.0484089
-0.089923
-0.0182227
0.0171236
-0.0128964
0.0140055
-0.00884053
0.0118798
-0.0995613
0.0965225
-0.048201
-0.00371655
0.00267384
0.0492475
0.103209
-0.0500803
-0.10527
0.0521441
0.0468871
-0.0877912
-0.138806
0.0186876
0.0109289
-0.00805189
-0.0215721
-0.0119123
0.00182848
0.0152207
-0.00513308
-0.0676042
0.0272354
0.0640518
-0.0236903
-0.0101359
-0.0829014
0.0541339
0.0388991
0.0851462
-0.107375
-0.00588275
0.0281126
0.0232875
-0.0345529
0.00659948
0.00466611
0.0292799
0.014021
-0.108927
0.065626
0.121249
0.0178371
-0.0991681
-0.0399137
0.0442539
-0.053388
-0.0403448
0.0494757
0.0231907
-0.0505897
0.0478295
-0.0204312
-0.0367015
-0.000184208
-0.00201452
0.0388983
0.0447081
0.0805618
-0.0477627
-0.0774994
0.0402312
0.0362552
-0.0550035
-0.0214826
0.00192153
0.000662281
-0.00201811
-0.000561911
0.0572981
-0.039268
-0.00404896
-0.0139797
0.0737176
-0.0530063
-0.012484
-0.00822394
0.110401
-0.105062
0.0660875
-0.0714252
-0.0658118
-0.0536951
0.0420942
0.0774123
0.0128202
-0.0883916
0.0691126
0.00647381
-0.00231293
0.00612848
0.00605457
-0.00987005
0.0266853
-0.0212045
-0.0906131
-0.0810555
-0.0302066
0.0257112
0.0855618
-0.00368528
0.0783231
-0.127497
0.019829
0.0085317
-0.0179134
0.00521307
0.0248581
-0.0331964
0.00312584
0.0137885
0.105657
-0.0806423
-0.0388055
0.0386092
-0.0677399
0.0600551
-0.0309208
0.00800316
-0.00715799
0.00752796
-0.00836955
-0.023708
0.049661
-0.0587462
0.0327931
-0.0280878
-0.0891547
0.088225
0.0290174
0.0346171
-0.00914485
0.000113462
-0.0255847
0.0868906
-0.0861985
0.0469456
-0.0476372
-0.0375778
0.00308121
0.0228896
0.0116069
0.085511
0.00757779
-0.0254543
-0.0676337
0.00352543
0.000738214
0.00021396
-0.00448399
0.0485323
-0.0714562
-0.039379
0.0623034
-0.128218
-0.0190941
-0.0110502
0.158361
0.030808
-0.108204
0.120788
-0.0434051
0.0499783
-0.0560926
-0.114857
0.120966
-0.00196149
0.00167776
-0.0198306
0.0201212
-0.08306
0.064456
-0.0477382
0.0663412
-0.117859
0.0968864
0.0212508
-0.000279842
0.014366
-0.12749
-0.019969
-0.00543628
0.00993353
0.0432325
-0.0477318
0.0260699
0.142479
-0.0527827
-0.0076557
0.00914861
0.000210317
-0.00170553
0.0493527
-0.0401866
0.0447465
-0.0539092
-0.0384219
0.0211909
-0.0529315
0.0701612
0.00694965
-0.00691645
-0.00695997
0.00692006
0.122817
0.0514601
0.0229169
-0.197195
-0.151205
0.0189919
0.131508
0.000703422
-0.00262292
-0.00605404
0.00570324
-0.0417034
-0.129259
0.111009
0.0599681
-0.0185667
0.0346925
0.0383291
-0.05446
0.000784611
0.0516775
-0.0601401
0.00767931
-0.0368445
0.078588
-0.071407
0.0296359
-0.00313812
0.0403177
-0.0123602
-0.0248186
0.0265787
-0.0350122
0.0452172
-0.0367848
0.000658986
-0.00397163
-0.0149391
0.0182594
-0.00507089
0.00223976
0.0341425
-0.0313137
-0.0844778
-0.0373514
0.00747255
0.114357
0.0271329
-0.0151826
0.00568881
-0.029888
0.0712423
-0.0707619
0.029408
0.0404261
-0.018457
-0.0274661
0.00549705
-0.00637179
-0.0175469
0.0294468
-0.00552176
0.0138162
-0.010107
-0.0159289
0.0122047
-0.000362245
-3.38117e-05
0.0282149
-0.0278147
-0.0086998
0.0324775
-0.00778146
-0.0159956
-0.0016004
-0.00858132
-0.0265211
-0.0260927
-0.027903
0.0245059
0.0294896
-0.001099
0.000708335
0.000613955
-0.000228119
0.117914
-0.0376351
-0.130556
0.0502766
-0.132985
0.0223766
0.0875559
0.0230519
0.0340504
-0.0378194
-0.0224443
0.0262136
-0.115756
0.112966
-0.0248973
0.02768
0.0911118
-0.0459608
-0.028172
-0.0169772
0.00695002
-0.0129629
-0.0885591
0.0945745
-0.0115146
-0.00509322
0.00511263
0.00369881
0.0722692
0.0123766
-0.088345
-0.017957
0.0413738
-0.037449
0.0140298
-0.041338
0.0626421
0.0231213
-0.0444285
0.0528698
0.0163861
-0.0927124
0.0234566
-0.00510172
-0.0404783
-0.00775744
-0.0028932
0.0712084
-0.00443039
-0.0638846
0.00818469
-0.0134315
-0.03321
0.0384607
0.0119124
0.0884339
-0.0896934
-0.0106531
-0.0915823
-0.0769769
0.120397
0.0481618
-0.0472074
-0.10757
0.0559367
0.0988405
-0.017056
0.103112
0.00802073
-0.0940801
0.0497569
-0.0672937
0.0654602
-0.0479238
-0.00119127
-0.0494588
0.02949
0.0211599
0.0153456
0.0370987
-0.0309528
-0.0214901
-0.0893488
0.0515401
-0.0971592
0.13497
0.0976295
0.0764153
-0.14566
-0.0283838
-0.0593917
-0.0709607
0.0681328
0.0622194
-0.0689544
-0.0853404
0.0543682
0.0999266
0.106508
0.0329303
-0.062047
-0.0773869
-0.0602916
0.0837131
0.0617149
-0.0851361
0.0322029
0.0691188
-0.0318345
-0.0694874
0.116703
-0.0646244
-0.0850392
0.0329604
-0.0120574
0.00870863
0.00163552
-0.0159519
0.0286472
-0.0190603
-0.0398499
0.0554624
0.0327623
-0.048375
0.00110586
-0.00466578
0.00506547
-0.0015058
-0.00985721
0.00543018
0.00442347
-0.0578074
-0.053079
0.0296638
-0.0331134
0.025698
-0.0222483
0.00217282
-0.000287507
-0.00187291
0.127303
-0.00247523
-0.0404316
-0.0843964
-0.0352231
0.0460818
0.0576886
-0.0685471
0.0431458
-0.0436657
0.0432064
-0.0426861
0.0041348
0.0630876
-0.0541294
-0.0130941
-0.0632701
0.0505452
0.044059
-0.0473282
0.0397267
0.025972
-0.0183699
0.0392018
0.0775265
-0.107534
-0.00919379
-0.0121935
0.00108543
-0.00272746
0.01384
-0.00620987
0.00592589
-0.00448918
0.00477001
-0.0639974
0.0404748
0.0559006
-0.0323775
-0.0103882
0.05746
-0.00838674
-0.0387043
-0.00462564
0.0208495
0.0517883
-0.0106531
0.00403575
-0.0451716
-0.0592716
0.0778806
-0.11597
-0.0150707
0.0292431
-0.0314484
0.0172766
0.0220243
-0.024974
-0.0177202
0.02067
-0.104946
0.135749
0.0279626
-0.0587647
-0.0278935
-0.0187735
0.0253588
0.0375984
0.0768379
-0.0930393
-0.021398
-0.0734103
0.0815536
-0.0362307
-0.0225259
0.0186543
-0.0218706
0.0257424
-0.042963
-0.0425063
0.0951527
-0.0096833
-0.0194528
0.0369259
0.0229525
-0.0568482
-0.039878
0.0422415
0.0544852
-0.0708534
-0.130703
0.157406
0.0441548
-0.0337567
0.0133279
0.0410161
-0.0205873
0.0956157
-0.119176
0.0736447
-0.0500798
0.00484377
0.0471124
-0.0149001
-0.0370598
-0.0635869
0.0206905
0.0708366
-0.02794
-0.036395
-0.0118574
0.0282599
0.019985
0.0857982
0.0477897
-0.0714459
-0.0621413
0.00895948
0.0197838
-0.0595911
0.0308476
0.0741189
-0.0725957
-0.000143489
-0.00138024
-0.0657016
0.0522118
-0.00899009
0.0224778
-0.012801
0.0800261
0.0651864
-0.132411
0.000118194
-0.0143996
0.0150477
-0.000773682
-0.0157062
-0.0843183
0.0787759
0.0212478
0.00493728
-0.0200518
0.0129651
0.00214946
0.0342803
-0.0634692
0.0428038
-0.0136176
0.0262544
0.0743037
-0.0696357
-0.0309293
-0.0164675
0.0181648
0.0285405
-0.0302515
-0.000791757
-0.00874026
0.00953183
-0.061174
0.0644016
-0.0203926
0.0171663
-0.00202519
-0.00116528
0.00319103
-0.0547171
0.111614
-0.0602821
0.00337885
-0.0178335
0.0137453
-0.0364722
0.0405608
-0.00454102
-0.11963
0.0561115
0.0680582
0.00183242
0.104978
-0.0183462
-0.0884571
0.00540205
0.0124507
-0.00378209
-0.070073
-0.0121592
0.0624958
0.0197364
-0.0660424
0.0988129
-0.0968776
0.0641077
0.0451053
-0.0479001
-0.042449
0.0452447
0.0414931
-0.0817065
0.194811
-0.154594
-0.048743
-0.0672168
-0.0179664
0.133929
-0.0247391
-0.0406178
0.0360531
0.029304
0.0170021
0.067513
-0.0666247
-0.0178902
0.0162606
0.0565074
0.0047522
-0.0775192
-0.00363327
-0.0226441
-0.0335547
0.0598314
0.138038
-0.116321
0.017484
0.0113311
0.0128795
-0.0104036
0.00140182
0.00144981
-0.00285753
0.0890949
0.0729318
-0.152164
-0.00986336
-0.014658
-0.000119123
0.0148922
0.00147681
9.78408e-06
-6.75836e-05
-0.00141121
-0.0789033
0.0727899
-0.0479467
0.0540604
-0.00768505
0.00809582
0.00579399
-0.00619785
-0.113429
0.107484
-0.0412644
-0.00850029
0.000629479
0.0846304
-0.085571
-0.0512404
0.0521802
0.00271392
-0.0026748
-0.0029749
0.00294245
-0.106784
0.11019
0.029198
0.006601
-0.0394406
0.0373798
-0.00453959
-0.00850461
0.000103788
0.00439046
0.00400922
0.0669772
0.0802597
-0.0395216
-0.107715
0.0331279
-0.0287602
-0.0411724
0.0368077
-0.00522798
0.0098863
0.000586734
0.0612249
-0.0277809
-0.0438541
0.150646
-0.142556
0.016575
-0.0246687
0.0963836
0.0441666
-0.0858709
-0.0546869
0.0126144
0.00198702
-0.0105767
-0.00402477
-0.0410385
0.118548
0.065531
0.125124
0.0159174
0.0012275
0.0526198
-0.0487696
-0.0923003
0.0884503
-0.0271395
0.0211004
0.0071984
-0.00115918
-0.120362
0.0400689
0.120832
0.00585592
0.0207606
-0.0231358
-0.00347049
0.00610086
-0.0385751
0.0312033
0.00127299
-0.0274664
-0.126564
0.0145096
0.13952
-0.0358364
-0.000781466
-0.0336716
0.0702903
-0.0285907
0.0168457
-0.00595774
0.0176919
-0.0487417
0.0470279
0.0395265
-0.037811
0.00560791
-0.032886
-0.0259369
0.0532141
0.0430885
0.0151947
-0.0519654
-0.0063212
-0.0506778
0.0179563
0.0704757
-0.0377535
-0.00294361
-0.00534212
0.000682116
0.00760488
0.0711913
-0.0998986
-0.0670209
0.0913225
0.0251055
-0.110606
-0.00582217
0.0697867
-0.0413163
0.0243994
0.0138045
-0.0152984
-0.00686435
0.00836372
-0.0725066
0.0183191
0.00128764
0.0529029
-0.0369765
-0.010492
0.0236532
0.0238154
-0.0261873
0.0360893
0.0197622
-0.0943589
0.119545
-0.0336529
0.00846525
-0.00170701
0.00702398
0.0229538
-0.0282644
0.0562774
-0.104603
-0.000649741
0.02484
0.00892114
-0.0331117
0.0599922
0.0111598
-0.0571139
-0.0140477
-0.0727768
0.038185
0.0703811
-0.0357862
-0.0489953
0.0402126
0.0334707
-0.0498964
0.0250313
0.149071
-0.124206
-0.00776703
-0.000485982
0.0035339
0.00471475
0.0565343
0.0292635
-0.0555419
-0.0302564
0.0474315
-0.0380409
-0.0200962
0.0107049
0.00762579
0.00544584
-0.00815189
-0.00491931
0.0235694
-0.00782866
0.0799595
0.0192941
0.0436739
-0.0727304
0.00976269
0.0385618
-0.0388307
-0.111092
0.111355
-0.000875812
0.00757102
-0.134914
-0.027939
0.114631
-0.0681036
-0.0185873
0.0988683
-0.0779701
0.0856389
-0.106541
0.0734018
-0.0445675
-0.0686728
0.0398378
0.0135751
0.0229421
-0.02133
-0.0151872
0.119738
-0.0630854
0.0920392
-0.0114283
-0.0165312
0.00788844
0.0200708
-0.0731634
-0.00826515
0.0134746
0.0679541
0.0589884
-0.00900307
-0.0404654
-0.00952012
0.0251755
-0.0256301
0.0158801
-0.0154259
-0.0322293
-0.0480371
0.0269051
0.0533615
-0.0492744
0.0575717
-0.0376864
0.0293841
0.00351547
-0.00579981
-0.0219456
0.0242297
0.0156626
0.0416312
0.00525822
-0.0625519
0.0552891
0.15582
-0.100274
-0.110846
-0.0479933
-0.0544421
0.0511999
0.0512353
0.0142221
-0.100952
0.0106323
0.0760953
-0.0527882
0.102983
0.0337776
-0.0839694
0.0256918
0.045105
-0.0282697
-0.0425263
-0.146454
0.143975
0.0739462
-0.0714643
-0.123043
-0.043269
0.138845
-0.000455072
-0.011283
0.0044384
0.00729821
0.0508502
-0.0351618
-0.0437543
0.0280639
-0.0143448
0.00851479
-0.00745676
0.0132867
0.0239466
0.0362559
-0.0238196
-0.0363831
0.0488343
0.00232907
-0.0978122
0.0466493
-0.0919119
0.0406789
-0.00827911
0.0595122
-0.0878427
0.026341
0.0858238
-0.0243187
0.00480131
0.00401251
-0.00102164
-0.00779095
0.0100902
0.00583695
-0.0117683
-0.00415951
-0.021539
-0.0386699
0.0401612
0.020047
-0.00187944
-0.0439186
0.0312543
0.0145434
0.0207791
-0.00524692
0.0060487
-0.021581
0.0840881
-0.0884865
-0.0375293
0.0419269
-0.0438902
0.0284437
-0.0309458
0.0463906
-0.00644381
-0.00679412
0.001047
-0.0740566
0.108534
-0.0828554
0.0483769
-0.0727513
0.0398046
0.0622265
0.0905879
0.0363346
-0.0781519
-0.0487696
0.0200133
0.0238831
-0.111559
0.0676571
0.0354092
-0.0778701
0.0658436
-0.0233824
0.00994741
-0.0108344
0.0220381
-0.0211512
0.00424166
-0.00398621
-0.00318627
0.00293561
0.011998
0.0559451
-0.0585494
-0.00939366
0.0807916
0.0285848
-0.0538577
-0.0555202
-0.0606815
0.0735112
-0.055721
0.0428895
0.00770572
-0.00990173
-0.00167678
0.0038729
-0.000411088
-0.000388927
-0.00402393
0.00482026
-0.0641245
0.100725
-0.0574166
0.0208159
0.0668608
0.0486439
-0.0657485
0.0380389
0.0831534
-0.0493979
-0.0717942
0.095568
-0.0820097
0.0739881
-0.0875506
0.128156
0.0562795
-0.0639145
-0.120516
0.0385305
-0.0245888
0.00564718
-0.0195921
0.0142302
-0.00571396
-0.0266808
0.0181641
-0.0627393
0.023531
-0.0332945
0.0608995
0.00936185
0.00125899
-0.0715206
-0.119798
-0.0056121
0.133974
-0.0085636
-0.113411
0.137469
0.0715625
0.00464226
-0.00444105
-0.00663834
0.00643957
-0.0739214
-0.0157262
-0.00793944
0.0975875
0.0870678
-0.0559524
0.067753
-0.00870029
0.000937367
0.00686254
0.000900519
0.0292609
-0.00446126
-0.0250219
0.000190297
-0.0907624
0.060837
0.0698701
-0.0399479
-0.0416919
0.103701
0.046312
-0.108321
-0.034586
0.029281
-0.079173
0.0146121
-0.00565561
-0.062186
0.0532345
-0.113958
-0.00998273
0.00267331
0.121267
-0.00105091
0.000601479
0.000949064
-0.000505338
-0.00952583
-0.00661592
0.00897172
0.00716818
-2.38068e-05
0.00178353
-0.00165721
-8.92789e-05
-0.0410084
0.0224355
-0.0243181
0.042892
-0.040548
0.0375948
-0.00210217
0.00505568
0.124214
0.0125752
-0.127064
0.116655
-0.0424233
0.0433244
-0.117556
0.0725793
-0.00908967
0.012227
-0.075712
0.118709
-0.0225344
-0.0907627
-0.00541461
0.0796277
-0.108487
0.114458
-0.0856001
-0.0326262
0.0190541
0.0151781
-0.00160691
0.030592
-0.0321394
0.063472
-0.0619243
0.0308118
0.147282
-0.0499188
-0.128175
0.00655283
-0.00891889
0.00476618
-0.00240747
-0.0370624
0.0602811
0.138198
-0.161442
-0.0292568
0.0538785
-0.0492515
0.0246297
-0.127776
-0.0497283
0.057142
-0.0868463
0.111608
-0.115107
0.0903463
0.0665162
0.100967
-0.066667
-0.100816
-0.0455047
0.128581
-0.121877
0.0387988
0.00127772
-0.000749205
2.40101e-05
-0.000538727
0.0152435
0.00267529
-0.0174198
-0.000488065
0.0210384
-0.0355304
-0.0904536
-0.0216568
-0.00616934
0.0140888
0.0137362
-0.074211
-0.0261395
0.0702562
-0.0028132
0.00436703
-0.00022249
-0.0013263
0.0219973
-0.0866012
-0.0254306
0.0900349
-0.0443809
0.0561462
-0.00594997
-0.00581543
-0.0762345
0.0812011
-0.0740611
0.0690933
0.122488
-0.0243775
-0.105107
0.00699659
0.0845674
-0.0928121
0.0584172
-0.0501736
0.0453883
-0.0403697
-0.118447
-0.00698068
0.00926832
0.00469135
-0.00698267
0.000100139
6.74353e-06
0.00118843
0.0418664
-0.117525
0.0769916
-0.0013323
-0.00203405
0.00621236
0.00236826
0.011453
0.00516523
0.000114039
-0.0167324
0.122254
-0.113958
-0.0273915
-0.0356501
0.0446439
-0.0315176
0.0225261
-0.101024
0.0638706
-0.0222406
0.059394
-0.0150725
0.0493687
-0.0477808
0.0134848
-0.0173287
-0.0415903
0.0792868
-0.0203655
0.0563401
-0.0128002
0.00728452
-0.0508391
0.0740147
-0.0941781
-0.0158829
0.0360603
0.00272311
0.0486264
0.00660921
-0.0579566
0.062181
-0.0662177
0.0368701
-0.0328339
0.0363087
-0.0368173
0.124704
-0.124193
-0.0829995
0.112746
0.116382
-0.146129
-0.0253573
0.024534
-0.000703112
0.00152624
-0.0346149
-0.0400394
0.0386763
0.035972
0.0598639
0.019607
-0.0386319
-0.0408398
0.00330585
0.0425626
-0.0350216
-0.0108574
0.0195709
0.00897679
-0.00494492
-0.0236029
-0.0684689
-0.0959188
0.0633633
-0.0284804
-0.0553197
0.0246561
0.0591415
0.0265842
-0.0215128
-0.00606342
0.000984267
0.0119401
0.0212522
-0.018762
-0.0144302
0.109704
-0.108106
0.0623106
-0.063921
0.0111576
0.0400413
0.000622466
-0.0518218
0.00983127
0.10892
-0.10473
-0.00306667
-0.0402568
0.0413039
0.00595438
0.0129923
-0.0137384
-0.00520839
-0.0342586
0.0233728
0.0221243
-0.011238
0.0481487
-0.0303032
-0.0404471
0.0226042
0.0899978
0.00818167
0.0683229
-0.1665
-0.0189549
-0.127495
0.0210815
0.125367
0.0143363
-0.00327295
0.00667451
-0.0177445
-0.0438429
0.0662145
-0.0727186
0.0503473
0.00120503
-0.00849378
-0.000149337
-0.00211318
0.00100288
-0.0011
0.00220745
-0.10848
-0.028356
0.107964
0.0288726
-0.105185
0.150473
0.0152441
-0.000846202
0.000759753
0.00074194
-0.000636758
-0.0202777
0.0114433
-0.067508
0.076354
0.0434168
-0.0859124
-0.00971825
0.0522125
-0.0192623
0.127574
-0.153954
0.0456423
-0.0934585
0.00707013
0.0933813
-0.00699248
0.0175098
-0.0205891
0.00344761
-0.000362656
0.11362
0.0212623
-0.133413
-0.00147284
-0.080503
-0.0517608
0.0851928
0.0470722
-0.117421
0.15733
-0.0421412
-0.0816175
0.0165676
0.0840822
-0.0190349
-0.00199047
0.0376379
-0.00327728
-0.0323706
0.0308481
-0.0257628
-0.0258745
0.0207893
0.148395
-0.0352205
0.018886
-0.132062
-0.0604543
-0.055649
0.0434947
0.0726086
0.0741059
-0.0986751
0.0927212
-0.0681525
0.146791
-0.0362085
0.00863403
-0.119216
-0.002581
0.0368372
0.0467261
-0.00472823
0.00182006
-0.043817
-0.00668401
-0.0284981
-0.00237282
0.0375433
0.0395292
-0.042153
-0.0404695
0.0430936
0.0337731
0.120116
-0.103918
-0.00206876
0.00132864
0.000970847
-0.000230419
-0.0313889
0.0574444
-0.134536
0.0186062
-0.0308722
0.0179382
-0.00566998
0.0855136
0.0803728
-0.0858819
-0.0800007
0.0113313
-0.00976181
-0.0385828
0.0370216
0.05345
-0.0892649
-0.0354302
0.071246
-0.00609111
-0.0712305
-0.0116424
0.0889652
0.0862636
-0.0589609
0.0594681
-0.086771
-0.122396
0.133533
0.0196752
-0.0171907
0.085123
-0.0821221
0.0141906
0.0121044
0.0507771
-0.0472191
0.0266863
-0.0273304
-0.0198326
0.0204764
0.0277848
0.0215875
-0.0254257
0.0681403
-0.0418443
-0.058032
0.0317345
-0.0710346
0.0645909
0.0312703
-0.0248299
-0.0896297
0.10022
0.0823543
-0.0929445
0.0183471
-0.0829718
0.00235781
0.0622599
0.109657
0.061025
-0.0603821
-0.110293
-0.0496253
0.0392443
-0.00784928
0.01823
0.00336466
-0.0863315
0.0828749
9.28481e-05
-0.0023592
-0.000942249
0.000475994
0.00282537
-0.104128
0.00367761
-0.00343765
0.103888
0.00286612
0.0144558
0.00327609
-0.020596
-0.0366276
0.0843827
-0.125563
0.0778054
0.0258457
-0.0649267
-0.0245465
0.0636269
-0.0931208
0.0579437
-0.0220452
0.0572216
-0.0781312
-0.0220206
0.0466683
0.0534826
-0.0829898
0.0649606
-0.0373206
0.0553475
0.139609
-0.0868978
-0.154262
0.101549
-0.0443005
0.0449436
0.0256067
-0.0456524
-0.00215093
0.0672979
-0.0194948
-0.166285
0.0411852
0.124224
0.0129481
-0.0212079
-0.0293179
-0.0710741
-0.0171943
-0.00088657
0.0658243
0.125729
-0.0933386
-0.0982124
-0.00298442
-0.0102512
0.012781
0.0197382
-0.0156458
0.0230404
-0.0593852
0.00205942
0.0390602
0.0182656
-0.0142036
0.0461168
0.0121321
-0.044046
0.0782261
0.0885653
-0.107425
-0.0593664
-0.0332352
0.037095
-0.0186201
0.0147605
0.0369367
-0.00981102
0.0228487
-0.0499753
-0.0366641
-0.0169087
0.0341202
-0.00130663
-0.00195089
0.00112782
0.00213219
0.0796888
-0.14187
-0.0431947
-0.0329191
0.0265105
0.049603
-0.0219009
0.0408158
-0.0847577
0.0658451
-0.00937871
0.0501012
0.0643447
-0.0622024
-0.0522444
0.106472
-0.089693
0.0516969
0.0120578
-0.0183086
-0.00809407
0.0183555
-0.11909
-0.00208843
0.102823
0.0759045
0.0687665
-0.0540826
0.00193497
0.018696
-0.0227627
0.00214194
-0.102143
0.0779947
-0.0338068
0.0579546
-0.0787259
0.116416
-0.0636722
0.0259818
0.0247693
-0.132724
0.114422
-0.00646236
0.0519574
0.036429
-0.0203589
-0.0680221
-0.0678433
-0.0157853
0.0496069
0.0340105
0.00326321
-0.00496509
-0.103614
0.105312
-0.0236536
-0.0155062
0.0188332
0.0203268
-0.011966
0.0224994
0.0336369
-0.0441793
0.0851583
-0.00670073
0.0307375
-0.109196
0.0123963
-0.061477
0.0473277
0.00174865
0.0966515
-0.0666474
0.0542027
-0.0842102
0.0407072
-0.023805
0.0222355
-0.0391382
-0.065319
0.0278056
-0.0412128
-0.033608
0.0312611
0.000973028
0.00137409
0.0495437
-0.0970453
-0.0388415
0.0863434
-0.0357165
-0.0135447
0.0353136
0.0139477
-0.0367307
-0.0164215
0.0009869
-0.0234924
0.00487102
-0.0149871
-0.151261
0.00806926
0.124236
-0.000976933
0.00192872
-0.0605545
0.0596022
0.00613402
0.00159211
0.00325197
0.0745504
-0.0693915
0.0730692
-0.0416759
0.0174731
0.0432194
-0.0190184
0.00457819
0.00851116
-0.00498284
-0.0419465
0.0463924
-0.0168863
0.0124404
-0.114566
0.0549999
0.0946915
-0.0351251
-0.024949
0.0204962
0.0165896
-0.0121369
0.127202
0.0536744
-0.0200234
-0.160854
0.00254618
-0.00144177
-0.00109351
0.145533
-0.0345857
-0.0221486
-0.0888008
-0.0688122
0.0500665
0.0120489
0.00670087
0.0512125
-0.0454349
0.0516888
-0.0574683
0.0493316
0.00338482
-0.0628705
0.0082742
-0.00225733
-0.0116781
-0.0102463
-0.0124677
0.00671293
0.0160027
-0.0619392
-0.0583047
0.0698623
0.050381
0.0402724
-0.0396601
0.0312655
-0.0214751
0.110721
-0.120508
-0.0307973
0.0233968
0.00574219
0.00166594
0.000849069
0.000495387
0.000136783
-0.00147835
0.0633114
0.0504889
-0.0843733
-0.0294233
-0.0798961
-0.0609233
0.0698023
0.0710249
-0.133399
-0.00678012
0.0415546
0.0986272
0.0061721
-0.00243373
0.00453229
0.0231984
0.0258796
-0.0326408
-0.0164372
0.00375008
0.0408259
-0.00815643
0.0868074
-0.0949152
0.0972025
0.0395112
0.0396698
-0.0608464
0.141687
-0.0467449
-0.144381
0.0494304
0.0254842
-0.0333485
0.00479357
0.00143628
0.00173414
-0.00200601
-0.00116021
-0.0776623
0.107661
0.0273973
-0.0573964
0.0128725
-0.0158864
-0.0947897
0.0978036
0.0554711
-0.0712266
-0.0722844
0.0880398
-0.0253304
0.00944115
0.023877
-0.00798829
0.0143656
-0.0961761
-0.0275919
0.109404
0.0280064
-0.0266794
-0.00948558
0.00815777
0.015889
-0.0173254
-0.0406662
0.0421034
-0.0465028
0.0666272
0.0519766
-0.0721019
0.00605808
-0.0146723
-0.00504243
0.0136598
0.0439531
-0.0531186
0.031085
-0.0219226
-0.0676251
-0.0205067
0.0855021
0.00262647
0.0193862
0.0430376
-0.0437268
-0.0186971
0.0172652
0.0477295
-0.045608
0.0652398
-0.0555515
-0.0433703
0.0336827
-0.0598745
0.063447
0.0747789
-0.0783499
-0.0588333
-0.0132057
0.0625249
0.00951935
0.0171547
-0.0361101
0.0671057
-0.00163118
0.0750507
-0.0649243
-0.00849017
0.0108639
0.0167415
0.0465191
-0.0741248
-0.0274486
0.0240286
-0.0322307
-0.0742501
-0.0752155
0.0763582
0.0731073
0.0832662
0.0639894
-0.102588
-0.0446622
-0.0900953
0.0892326
0.0692561
-0.0683925
0.0477191
-0.0560604
-0.00190077
0.0102422
-0.0770337
-0.0771154
0.083115
-0.00149122
0.00168936
0.00124106
0.0690743
0.0830535
-0.112059
-0.0671682
0.0510782
-0.0233838
0.0394745
0.0528179
-0.0270049
-0.081348
0.0555342
-0.0747341
0.0174991
0.0809751
-0.0237396
-0.0398228
-0.0203358
0.0412344
0.0189245
0.0114875
-0.127041
-0.0325211
0.132972
0.0350126
-0.0263008
-0.072672
0.0377863
-0.0380006
0.0695102
0.0637922
-0.0667837
-0.0665183
-0.0539205
0.0506958
0.018365
-0.028571
0.0525793
-0.04238
0.00206444
-0.00321212
0.0205169
-0.0193615
0.120219
-0.0236535
0.0540794
-0.047502
0.13169
0.0452965
-0.129487
-0.0107881
-0.0105124
0.0133431
0.00795733
0.088423
0.0935228
-0.0832192
-0.0987257
0.0169386
-0.00396297
0.00113063
-0.0141064
0.124882
-0.0529777
-0.162613
0.090714
-0.0873487
0.00550267
0.0910457
-0.00919174
0.119001
-0.00941709
0.0249267
-0.00271645
-0.0257805
-0.00834234
0.0368375
-0.044302
0.0365411
-0.0172628
0.0250239
0.012548
-0.00848058
-0.00501477
0.000946928
0.183051
-0.0329139
-0.153305
-0.157329
-0.0453724
0.036729
-0.0586745
-0.00840543
0.0702937
-0.00321394
0.0361497
-0.0438994
0.00863294
-0.000881955
-0.00956473
0.073508
0.00306739
-0.0669918
-0.0014593
0.00135094
-0.00110507
0.00121665
-0.00787154
-0.0106167
0.0126357
0.00585243
0.00780489
-0.013183
0.0138932
-0.0823479
-0.111821
0.138072
0.0300635
-0.032269
-0.00993647
0.0121615
0.0355502
0.0327189
-0.0397876
-0.0284796
0.0128868
-0.00584424
0.00989563
-0.105584
0.119814
-0.00135768
-0.0683219
-0.0105558
0.00780349
0.0171127
-0.0549503
0.0989777
-0.0611457
0.0445936
-0.0598364
-0.0201134
0.0353649
0.00394511
-0.0517183
-0.103433
0.108344
-0.114315
0.0409666
-0.0349959
-0.0344945
-0.0446354
0.0471033
0.0320272
-0.0802557
0.0864386
-0.0108038
-0.0532956
0.0546697
0.0044214
-0.00579576
0.0601164
0.00872372
0.00336231
-0.0722032
0.00233739
-0.00262543
-0.00193037
0.00222067
-0.0699268
0.0779962
0.0102973
-0.00878024
-0.0702629
0.027645
0.0514004
-0.0374969
-0.133133
0.00434319
0.0624371
-0.0424095
0.0766223
0.0125391
-0.0244112
0.101883
-0.090002
0.0307991
0.000220122
-0.0420339
0.0110153
0.037337
0.0752516
-0.0756331
-0.0369558
0.0538516
-0.0503937
-0.0873591
0.0839012
0.0526792
0.0956149
-0.0258055
0.0702872
-0.0633318
0.0726719
0.0874509
0.0190238
-0.00562026
-0.100855
0.0271171
0.0150929
-0.0239615
-0.0182481
0.10294
-0.0229718
-0.0183338
-0.0616317
0.011062
-0.0270158
-0.137842
0.0623536
-0.01757
0.093059
0.050091
-0.0634072
-0.0540149
0.0673285
0.146726
-0.0214672
-0.106269
-0.000456793
-0.00033387
0.000776652
-0.00893792
0.056681
-0.0555669
0.00782431
-0.0144879
-0.0506466
0.0235963
0.0415357
0.0250706
-0.0223141
-0.0916976
0.088947
-0.0876741
0.0415948
0.0931411
-0.0470592
0.0421201
-0.0632804
-0.104002
0.125162
0.119939
0.0281838
-0.121695
-0.0264295
0.0296036
-0.0939181
0.000189913
-0.074342
-0.010971
0.0700945
0.0152177
-0.109954
0.0784831
0.0157648
-0.00479091
-0.0033474
-0.00189595
0.0100313
-0.00360312
0.00589299
-0.00475796
0.00247142
-0.107277
-0.0569637
0.104602
0.0596396
0.0136745
-0.0132325
-0.00999479
0.00954105
0.0241267
-0.0168627
0.0122006
-0.0194644
-0.0621891
0.0299733
-0.0197633
0.0519798
-0.0834814
0.131382
0.0380976
-0.0859975
-0.0922352
0.0583499
0.105076
-0.0446633
-0.0164088
0.0468678
0.00387849
0.0335339
0.0753217
-0.112732
-0.014629
0.0588422
-0.0333232
-0.0108927
-0.0325638
-0.0306884
0.0568765
0.00637571
0.0179765
-0.0177883
-0.0227673
0.0225791
0.00830645
-0.0448856
0.0470276
-0.01045
0.0309188
-0.0150734
-0.0475632
0.0317139
0.0182788
-0.0333899
0.135047
-0.107567
-0.00663667
0.0481613
0.0732186
0.0868855
-0.0853251
-0.0747755
0.116507
-0.00787027
-0.132774
0.0241313
-0.02622
0.0248222
0.0322461
0.019026
0.022283
-0.0157904
-0.0255189
0.0398373
0.155235
-0.0918618
-0.0771809
0.0502662
0.0672412
-0.0403274