/*--------------------------------*- C++ -*----------------------------------*\
  =========                 |
  \\      /  F ield         | OpenFOAM: The Open Source CFD Toolbox
   \\    /   O peration     | Website:  https://openfoam.org
    \\  /    A nd           | Version:  7
     \\/     M anipulation  |
\*---------------------------------------------------------------------------*/
FoamFile
{
    version     2.0;
    format      ascii;
    class       volVectorField;
    location    "150";
    object      U;
}
// * * * * * * * * * * * * * * * * * * * * * * * * * * * * * * * * * * * * * //

dimensions      [0 1 -1 0 0 0 0];

internalField   nonuniform List<vector> 
11372
(
(9.12026 0.43207 0)
(-0.687211 1.00811 0)
(7.22688 -2.43307 1.338e-17)
(-3.57577 1.28744 2.29113e-19)
(8.95203 -0.0416275 0)
(-0.869651 0.738833 0)
(12.0052 0.651539 -4.0107e-18)
(11.5718 0.317348 -5.5833e-18)
(12.7789 0.775916 0)
(6.09912 5.99222 0)
(11.5424 0.171993 -3.21433e-19)
(6.54995 2.66071 1.0014e-18)
(12.1277 -2.48866 -1.14174e-18)
(11.1692 1.52493 -1.56441e-21)
(7.79128 -1.56499 0)
(-3.15586 1.73104 7.12517e-18)
(12.103 0.0741327 3.6428e-18)
(12.2619 1.59611 -4.23481e-18)
(9.89511 2.04221 -5.29523e-19)
(9.68877 1.11584 -6.51714e-18)
(5.01687 1.35274 -8.4265e-18)
(10.3237 0.123036 5.68155e-18)
(8.015 -8.50487 -2.80865e-20)
(2.15965 0.566295 1.63247e-17)
(11.5083 0.138349 4.39186e-19)
(9.72069 1.63788 -2.65259e-19)
(-2.30808 0.256328 1.65024e-19)
(10.5841 2.17216 -9.2944e-21)
(9.85928 0.941 8.71292e-18)
(9.8026 1.07981 0)
(9.76988 1.87597 -1.55695e-18)
(9.95106 0.871246 -5.35006e-20)
(9.07563 -1.00672 -4.23133e-18)
(10.9843 1.56745 -1.81192e-18)
(3.21758 2.15639 -1.33144e-20)
(10.4403 1.08816 -1.11281e-19)
(10.8788 0.021573 4.10675e-18)
(12.3349 1.8725 1.28523e-19)
(11.7387 -1.42365 -8.82016e-18)
(12.07 2.77933 -1.80412e-17)
(13.577 1.1273 1.71664e-17)
(9.88571 0.924095 2.48261e-18)
(10.9149 0.825957 0)
(6.00215 0.166382 -6.05208e-18)
(10.1141 0.215623 9.49657e-18)
(12.7959 0.269274 -2.5822e-18)
(11.1517 -0.308325 -2.963e-19)
(-2.02359 0.787299 -4.84027e-18)
(-0.219374 0.2231 -8.42907e-18)
(10.1865 -0.342691 -4.41478e-18)
(10.3302 0.865447 3.91168e-18)
(11.649 0.122618 -1.21753e-17)
(5.86311 -4.8535 6.4169e-18)
(13.0006 -3.06627 1.52365e-17)
(9.95257 1.7804 0)
(11.7321 1.32882 -5.64172e-18)
(5.90939 2.03597 1.46513e-17)
(-0.458618 0.516919 -1.19574e-17)
(10.0746 -0.404894 -7.68407e-19)
(6.99627 0.448973 0)
(11.8697 -3.95319 -1.94406e-18)
(12.2196 -3.6024 0)
(10.5824 1.1876 1.53696e-19)
(0.606023 2.74121 -1.72061e-17)
(2.2485 -1.82396 7.55762e-19)
(10.74 1.16747 -3.71746e-19)
(12.8131 1.63392 4.86527e-18)
(-3.89289 0.876266 -4.5589e-18)
(6.89534 -4.67572 9.65106e-18)
(4.33133 1.52991 0)
(10.0891 0.17455 -2.7542e-18)
(11.2933 0.595857 -6.56017e-19)
(10.9556 0.217113 -9.67592e-20)
(11.1832 -0.589958 5.62435e-18)
(13.0229 2.52202 4.67027e-18)
(9.92952 0.940807 3.6686e-21)
(-4.04667 1.29308 -5.69158e-18)
(10.8039 1.91838 -5.38553e-19)
(9.93397 0.840844 -7.01664e-18)
(14.3008 2.28899 0)
(-2.52 0.911181 -1.11908e-17)
(3.57367 -5.36433 -8.13359e-19)
(0.683263 -1.97538 -5.1071e-17)
(8.71742 -3.39301 -2.06657e-18)
(15.3168 -1.36392 -5.48064e-18)
(11.6474 9.17223 7.88391e-18)
(10.1766 0.705294 0)
(12.4593 1.01594 -5.47098e-20)
(8.92022 0.943264 -3.39295e-18)
(13.7001 4.69302 -9.58154e-18)
(10.7971 0.0795877 -3.5158e-18)
(9.99482 -0.672784 -1.03423e-19)
(-1.61591 0.118021 0)
(9.34507 -2.67761 1.64265e-18)
(10.3212 0.0201773 5.31967e-18)
(2.47623 -2.86424 -1.41094e-18)
(12.4219 0.250073 8.31849e-18)
(-1.66554 -2.08465 4.2515e-19)
(1.5897 1.77578 1.4631e-17)
(10.549 1.13596 -3.55412e-18)
(9.96211 0.490772 4.08245e-18)
(8.28735 -0.00453985 9.65096e-18)
(9.87772 0.66087 5.84126e-18)
(10.4586 -0.139543 1.60276e-18)
(9.64557 0.471506 -6.46379e-18)
(1.92721 2.64177 1.32412e-17)
(-0.51354 -0.792879 -1.55446e-17)
(9.8274 0.675368 -1.5448e-17)
(10.4741 1.40086 -7.09231e-20)
(9.09565 0.894681 0)
(10.5141 1.97579 -1.78792e-19)
(8.74396 0.457705 1.94877e-18)
(8.73024 -6.67806 -2.02782e-18)
(9.8669 1.30818 -6.21513e-18)
(-4.32249 0.865368 1.07694e-17)
(10.002 0.479622 -5.28996e-19)
(13.0086 -0.119162 2.20759e-18)
(10.0461 1.08621 0)
(11.2288 1.49556 0)
(3.87056 -1.8134 -2.31474e-17)
(-3.82912 0.985654 3.53481e-18)
(13.7615 0.17021 3.24803e-17)
(5.88885 -2.70538 -6.80181e-19)
(10.2837 1.54965 7.36589e-19)
(7.33733 -0.150435 3.1091e-18)
(9.76674 1.01678 2.99871e-18)
(11.6479 0.343577 8.24764e-19)
(12.4723 -0.0485709 3.87525e-18)
(11.2343 3.0157 -1.16297e-18)
(13.6453 1.78307 -8.29944e-19)
(12.6704 0.372278 -5.87749e-18)
(11.8375 3.4729 1.30591e-18)
(-0.802269 -0.57461 -1.90047e-17)
(12.3385 -1.38217 7.77072e-19)
(12.7478 -0.402629 0)
(11.1855 0.523432 1.56564e-17)
(12.0847 1.41407 -7.72766e-18)
(9.07714 -4.95678 -1.95661e-18)
(1.81705 4.53388 -1.17265e-17)
(9.84841 0.691936 0)
(7.57786 -2.16069 -1.07211e-19)
(9.93704 0.942367 0)
(6.40781 1.12271 8.29838e-18)
(8.42755 -4.75903 -2.14886e-18)
(8.89012 0.125129 -2.65169e-19)
(12.7046 0.150479 -2.61606e-21)
(-3.41285 0.604586 5.22224e-18)
(9.69215 2.15421 0)
(9.78141 1.73227 0)
(10.4877 0.0825077 5.11213e-18)
(10.4666 0.016987 -3.67797e-18)
(11.2074 7.36024 2.36909e-18)
(11.6791 -0.280459 2.35533e-18)
(-1.41302 0.703451 0)
(10.1268 1.53878 -2.60134e-18)
(10.4313 0.502882 3.72581e-19)
(12.1017 0.746085 -7.96278e-19)
(11.7153 0.872948 -1.10019e-18)
(-3.06293 -0.329589 0)
(9.58904 0.406723 -1.78737e-17)
(11.0572 0.243285 8.7695e-20)
(10.512 -0.159132 0)
(13.5625 1.29975 9.72022e-18)
(9.94643 0.875382 2.09269e-17)
(-1.78555 5.20091 3.24951e-18)
(11.538 -1.20413 0)
(13.1517 1.52463 8.51348e-18)
(-3.29396 1.7783 0)
(10.6577 -0.0679739 3.3603e-18)
(10.6306 0.645887 2.83005e-21)
(-1.92852 0.195863 4.48911e-18)
(10.1866 0.193256 0)
(12.8295 -0.0380229 -1.00095e-17)
(12.9776 3.16406 -8.83799e-18)
(8.53452 -0.0746041 1.33451e-18)
(13.9576 5.06194 2.20207e-19)
(9.87483 2.99806 0)
(-3.34639 1.05117 -2.28779e-19)
(14.6065 4.18341 5.25226e-18)
(9.87677 0.476757 -7.39543e-18)
(9.00546 -3.35325 -2.29207e-19)
(9.6059 1.25722 1.3637e-17)
(13.1341 6.83677 -2.20335e-17)
(5.33944 0.52166 -2.37268e-18)
(4.50258 0.643683 0)
(8.28515 0.15809 1.36173e-18)
(7.01058 4.26453 0)
(13.6881 1.84493 3.62162e-18)
(8.29388 0.537128 0)
(-0.463321 -0.0650374 1.76521e-19)
(9.98762 0.206016 -4.32071e-19)
(9.84087 1.39916 0)
(8.1877 0.918519 2.66564e-17)
(12.1883 0.269243 -7.39175e-18)
(12.3083 -0.0967265 3.91525e-19)
(11.9787 -0.495679 2.70558e-18)
(-3.79015 0.902257 1.33079e-17)
(9.80319 1.02598 4.06681e-19)
(13.4535 4.10457 2.33233e-18)
(12.2692 2.3249 -2.7218e-18)
(9.80348 1.15499 -9.11252e-18)
(9.15193 0.901053 -1.72249e-18)
(9.45914 0.941302 0)
(4.02919 -3.94937 4.55997e-18)
(10.4798 1.63619 0)
(11.5602 0.715504 8.06818e-18)
(10.3367 0.312088 -2.94562e-18)
(11.6739 0.525303 -3.25484e-19)
(11.8895 1.24748 2.25536e-19)
(8.11206 2.09253 1.15212e-18)
(13.7215 -0.712494 -1.59203e-19)
(11.6384 0.726973 -5.80282e-19)
(12.0036 2.12816 0)
(9.70477 0.989808 -5.39944e-18)
(9.79799 0.699568 0)
(13.596 -2.53518 2.09848e-17)
(9.85356 0.914268 -1.84031e-17)
(9.64513 1.17844 5.45186e-20)
(11.2672 0.436765 2.24604e-18)
(-3.14648 1.58741 1.31819e-17)
(6.75384 0.560161 -2.48838e-18)
(9.69892 1.20722 -7.08619e-18)
(1.60653 -2.0935 2.022e-17)
(-0.415838 4.97662 -1.92614e-17)
(9.82236 0.702624 5.85338e-18)
(10.2849 5.85065 2.49805e-18)
(-0.843353 -0.637282 4.58391e-20)
(10.6476 0.391846 6.79118e-19)
(9.81555 0.592642 0)
(10.1357 -0.56728 -5.38707e-18)
(9.95434 2.62783 -2.05036e-18)
(9.99641 1.78529 1.84362e-18)
(12.9523 1.77581 -5.08972e-18)
(10.7849 1.14608 -2.07446e-18)
(3.48176 0.415515 5.08046e-19)
(-1.7751 3.16022 5.57136e-18)
(13.4718 2.17034 0)
(4.68785 -1.45322 -9.8961e-19)
(13.3205 -2.79993 -6.90217e-18)
(11.2793 -2.19162 1.22398e-18)
(9.95354 0.868649 -1.49504e-17)
(14.3992 2.90115 3.94246e-18)
(9.43236 -2.40019 6.4586e-18)
(10.2275 1.28762 1.7609e-18)
(8.7372 -3.08636 1.84223e-18)
(10.6438 2.00543 0)
(9.71558 1.71602 7.76234e-18)
(5.66822 0.00906334 8.45508e-19)
(10.1317 2.03887 -4.59691e-18)
(13.3668 6.4806 -1.18717e-17)
(10.423 -0.844967 -3.91423e-19)
(10.1088 0.348382 -6.70501e-19)
(17.7528 7.21723 1.81844e-18)
(12.1677 1.9514 -1.42698e-19)
(14.0576 1.88331 -9.11043e-18)
(9.36438 0.37011 4.29473e-18)
(10.0014 -0.199234 -6.99427e-18)
(10.074 1.18469 -1.02494e-18)
(9.10565 2.49483 3.88708e-20)
(10.012 0.0282301 1.76973e-18)
(13.4307 1.35334 -1.52501e-18)
(9.91218 0.946367 -2.16797e-18)
(0.877037 -1.83904 2.03702e-18)
(9.73847 0.733133 3.33471e-18)
(6.47438 -2.69857 -6.28752e-18)
(12.4069 1.70415 6.22123e-18)
(8.50264 0.0666097 0)
(6.64766 -0.146921 -1.1484e-17)
(0.898617 4.53585 2.25363e-17)
(11.7514 -0.371556 0)
(0.364073 1.28867 -1.70675e-17)
(12.9755 0.438606 1.74177e-18)
(9.95037 4.32757 -2.86243e-19)
(12.6261 -0.193214 0)
(11.7884 -1.13571 0)
(4.4662 1.49198 0)
(9.95202 0.0563042 -1.49806e-18)
(10.3298 0.993567 -3.74078e-19)
(10.0438 -0.479483 5.52209e-18)
(11.4338 2.77832 1.33883e-19)
(9.6458 -0.706772 3.18763e-18)
(9.84342 -0.763243 0)
(9.49379 0.303788 0)
(10.0249 -0.172547 -2.21681e-18)
(13.7648 1.01545 -3.58595e-19)
(10.7272 1.11409 2.66589e-19)
(4.04773 0.589705 1.39522e-17)
(-0.469296 1.17001 -9.91665e-17)
(10.6883 1.09537 5.934e-19)
(0.839309 -1.53213 1.27718e-18)
(-0.165021 0.0882208 0)
(9.87429 1.11085 4.51834e-18)
(-2.96892 0.436379 1.38493e-17)
(10.3015 0.348593 -2.94445e-18)
(4.18195 1.56346 -5.0011e-18)
(10.2391 1.7324 -5.09321e-18)
(0.925102 0.101956 0)
(9.97039 1.00764 2.59396e-18)
(10.74 -2.14695 5.3369e-19)
(-1.85046 2.41953 -5.10915e-18)
(9.94681 0.902997 7.5769e-18)
(12.7714 -0.553985 0)
(2.86233 2.24106 -1.65504e-17)
(5.45183 -0.970316 -4.86951e-18)
(10.3722 -0.176461 -1.40415e-18)
(12.3608 0.524948 -1.52559e-18)
(3.67887 -4.67371 1.56258e-17)
(10.031 -0.341514 0)
(9.94393 0.853481 3.90498e-18)
(11.3788 -0.0889936 0)
(7.31697 -6.08887 -2.7194e-19)
(9.93445 0.833023 2.18014e-17)
(3.22327 -2.47448 -2.24992e-17)
(14.8234 -0.790917 2.12154e-18)
(10.1134 0.448597 -4.3919e-18)
(10.2251 2.31426 -3.23741e-19)
(5.00057 0.881283 -2.57581e-17)
(11.8484 -1.20992 2.11152e-18)
(12.5864 1.41431 -9.12301e-20)
(13.8206 1.51542 -7.27433e-18)
(10.4256 3.41311 -1.02074e-20)
(-2.84123 1.27729 0)
(9.29965 -1.00762 -2.88348e-18)
(9.67647 0.886208 0)
(9.78547 1.18519 1.42419e-18)
(3.52202 0.410739 5.95691e-20)
(12.6857 -0.0581673 0)
(8.43166 -1.65902 0)
(10.5938 5.69397 4.04796e-18)
(11.9223 0.396394 -8.64756e-19)
(1.04639 -3.17633 -3.28621e-18)
(9.80585 1.05238 6.09899e-18)
(6.78578 5.54187 0)
(13.7239 0.56613 -7.79274e-18)
(11.0632 -3.09667 -8.59375e-20)
(12.9401 2.4324 -7.05045e-18)
(10.2812 0.135472 9.41991e-19)
(0.596854 3.01421 0)
(10.5186 2.40733 1.0121e-18)
(11.8341 2.45336 3.21761e-19)
(-1.57387 1.997 0)
(11.8759 -3.98252 0)
(10.1661 -0.337388 0)
(11.4703 0.842913 1.64336e-18)
(10.4074 0.479351 1.42657e-20)
(8.67255 -0.85193 1.07397e-18)
(10.9673 0.883471 1.04629e-18)
(11.7015 0.830014 0)
(7.27614 0.951135 3.69476e-18)
(9.95846 0.875611 7.17194e-19)
(3.43868 7.39706 -1.8926e-18)
(12.7295 1.4724 4.71379e-19)
(8.59107 1.0348 1.36474e-18)
(7.89588 -1.12444 6.24483e-18)
(9.61581 0.161675 8.6823e-18)
(13.7836 0.953013 6.80495e-18)
(6.03803 1.32068 2.17556e-17)
(8.76048 0.784701 -3.51136e-18)
(13.0626 1.83638 -3.84074e-19)
(9.84027 1.21745 0)
(10.6951 0.866644 0)
(11.8647 0.336579 1.16765e-18)
(9.44568 -0.26705 1.57015e-19)
(11.933 2.7957 1.06229e-19)
(10.0935 0.49155 -4.0687e-18)
(-1.1535 4.02924 2.68323e-17)
(12.7556 1.95675 -7.90366e-18)
(5.0635 2.47843 0)
(8.18754 2.39385 1.21286e-17)
(9.63487 0.786654 4.09637e-18)
(9.72121 0.82699 0)
(10.8648 -1.13337 -3.29908e-19)
(-2.20339 2.04634 1.79848e-17)
(-3.69703 0.901105 5.22279e-18)
(10.3461 4.10453 -5.10705e-19)
(7.90933 2.33256 -2.46037e-18)
(6.22957 0.42673 -5.53538e-18)
(9.82199 0.757312 -1.07013e-17)
(14.0289 1.239 -1.67893e-19)
(3.29157 0.348822 0)
(10.7824 1.42401 1.72111e-18)
(9.76446 1.04582 -5.82443e-20)
(11.0148 -0.281414 0)
(12.23 0.448668 0)
(9.8906 -0.139829 0)
(6.38294 7.29775 -9.52442e-19)
(-1.70098 -0.306533 5.47599e-18)
(10.6157 2.85786 -3.29865e-20)
(12.5277 0.0413282 2.02983e-19)
(11.5285 1.25623 9.47387e-18)
(4.31837 0.360066 2.79674e-18)
(1.68739 0.11931 5.85304e-18)
(10.1691 1.48318 -2.20302e-18)
(11.841 1.17298 9.61873e-18)
(10.1248 1.10345 8.78681e-19)
(11.8965 0.674194 1.11366e-19)
(10.1536 0.29044 0)
(17.0561 3.85536 0)
(9.70786 -5.66875 0)
(12.6676 -0.109748 2.59857e-18)
(9.0732 0.644458 7.18941e-19)
(10.8425 0.536051 -5.10999e-20)
(12.0388 1.92701 -2.79921e-20)
(-3.13386 0.683636 -6.13325e-18)
(10.5423 -0.702708 -2.30148e-19)
(10.9276 0.911361 -4.221e-19)
(3.23422 0.180656 -7.94797e-18)
(5.18722 -0.87804 6.94172e-18)
(11.586 0.437265 3.32697e-19)
(10.8609 -0.391263 6.14694e-18)
(9.88808 0.512145 0)
(5.85865 -1.89078 -9.18718e-19)
(10.6803 -0.175727 6.32251e-19)
(-0.257001 -0.385889 -2.36247e-17)
(-1.46628 4.12015 1.17202e-17)
(-0.376446 -0.63091 8.53735e-18)
(13.0347 1.23087 2.01305e-17)
(9.33829 -1.7187 0)
(10.1136 0.600863 0)
(11.1092 0.0805575 -3.11495e-18)
(8.14122 -3.68713 1.36954e-17)
(10.7008 0.254226 2.18807e-18)
(9.93098 0.679977 4.26158e-18)
(8.65107 10.6728 2.2304e-18)
(9.89472 1.88881 -3.46559e-18)
(9.93682 0.922816 -1.23213e-17)
(-0.766397 3.53949 4.82967e-18)
(12.7665 1.76489 -5.50818e-19)
(8.9441 1.71225 -2.66204e-18)
(9.94145 0.837539 1.42904e-17)
(11.3003 1.36624 0)
(10.4554 0.317696 -5.28304e-18)
(10.3501 0.432109 7.91589e-19)
(-0.421692 -0.397762 1.51409e-16)
(-2.63783 0.0913603 -3.38298e-18)
(10.2002 1.28422 0)
(-0.569601 -2.93889 -3.64411e-18)
(9.71169 1.1353 6.31973e-18)
(1.4968 -0.130324 5.71057e-18)
(11.587 -0.517444 3.69997e-18)
(12.0837 4.89272 -2.6249e-18)
(11.1894 1.37464 1.4958e-17)
(9.90595 0.728655 4.53564e-18)
(11.535 -0.0523013 0)
(10.2782 0.35022 -4.66632e-18)
(-2.95498 1.97283 -6.6446e-18)
(-0.505753 -0.436719 -4.77474e-17)
(9.84988 0.886551 3.71158e-18)
(-0.245661 3.08277 5.06164e-18)
(5.43262 0.733876 -8.66974e-18)
(10.3504 0.519944 5.77971e-19)
(12.8592 -1.94452 2.31743e-19)
(11.4526 -0.293441 -1.12814e-17)
(8.70914 1.99657 3.30741e-18)
(12.2923 -0.35381 0)
(13.7248 -1.01715 -6.1487e-18)
(10.3834 -4.64153 -2.00087e-18)
(13.0856 -0.246337 6.8941e-18)
(9.73325 0.430668 0)
(9.83463 0.108655 -2.93628e-19)
(10.1988 2.37185 1.19155e-19)
(6.77432 1.76791 9.54795e-18)
(14.2311 -0.578269 2.14272e-17)
(10.9847 -2.08981 -8.80683e-20)
(8.89117 -0.323653 -4.18751e-19)
(5.69737 6.48316 0)
(11.4696 -0.185356 -8.96742e-18)
(13.9662 -0.587109 2.04229e-18)
(0.861814 -2.6409 9.43476e-19)
(8.44946 -2.81565 0)
(12.0127 1.05119 -9.18021e-19)
(8.09264 1.85026 -1.35467e-19)
(9.75421 0.987374 -2.75796e-18)
(6.68037 0.499629 0)
(4.5414 1.8749 0)
(7.96302 4.48132 4.12747e-18)
(12.054 -1.74848 1.80472e-18)
(10.1902 0.232998 1.714e-19)
(10.8874 0.687941 -4.85668e-19)
(2.69493 0.17355 -3.56552e-18)
(9.70676 1.03863 1.76896e-17)
(2.17387 2.2221 0)
(-1.23309 0.393871 4.20882e-17)
(10.0607 0.472248 0)
(10.6274 1.16525 2.8055e-18)
(-0.359895 -0.418211 -2.68822e-17)
(7.32625 -2.49566 8.2381e-19)
(13.0736 0.0390101 6.569e-18)
(10.1846 -0.00871252 0)
(10.3651 1.34319 0)
(5.38489 0.229739 -1.73404e-18)
(10.2359 1.07079 2.27336e-19)
(10.3492 1.75338 2.22933e-18)
(10.2938 0.00869483 0)
(12.3359 0.762196 -5.31683e-18)
(8.63371 -1.46947 -2.55363e-18)
(8.17274 -0.295234 1.17786e-19)
(10.936 1.22106 7.30452e-21)
(9.77186 1.10889 1.38815e-18)
(9.896 0.841902 8.04259e-18)
(9.94163 0.994359 -1.82047e-17)
(10.5211 0.112573 -1.1123e-18)
(12.3 6.94233 1.14158e-17)
(6.65129 0.714954 -6.32359e-18)
(9.22195 1.50182 9.27149e-18)
(11.6297 0.894539 0)
(0.751959 0.334817 0)
(10.0414 0.498523 -2.63962e-18)
(12.2917 -0.295689 -5.76573e-18)
(9.32161 -0.351671 -1.1876e-18)
(6.58714 0.640672 2.09745e-18)
(11.9817 -3.07729 0)
(11.8915 -0.570111 2.6854e-19)
(9.87073 0.703995 -1.75491e-17)
(9.94596 0.93436 1.3916e-17)
(9.90138 0.431149 0)
(8.72508 0.859207 -6.88035e-18)
(8.81845 4.57491 -6.81868e-20)
(8.26466 2.5423 0)
(11.4376 -0.691825 0)
(12.826 0.301523 2.50584e-18)
(10.0781 0.504974 3.05911e-18)
(6.73053 -3.58682 -3.74374e-19)
(11.848 1.14444 -7.82221e-19)
(8.94307 2.43736 5.73344e-18)
(10.153 -0.00484599 -5.43076e-19)
(-0.527944 -0.881202 0)
(10.7547 1.25729 -1.09407e-19)
(7.16677 0.171066 -1.81328e-18)
(12.0029 0.237812 0)
(10.7945 2.29778 -2.91317e-19)
(11.0613 0.858307 1.24137e-17)
(10.7267 2.06445 -2.8097e-19)
(12.0357 0.228339 1.57298e-18)
(10.613 0.00413335 2.07639e-17)
(7.03132 -0.458316 0)
(10.1808 -1.48618 7.04183e-19)
(10.4886 0.453422 7.86797e-19)
(10.7016 7.34639 -2.22727e-18)
(9.79357 1.6657 -2.67054e-18)
(9.91064 -0.123645 -4.05733e-18)
(-1.39341 4.47113 -7.4486e-18)
(9.11228 -3.59529 -1.76258e-18)
(9.16077 2.28347 8.20018e-18)
(9.26159 3.9456 0)
(11.8426 0.557197 -2.25448e-18)
(9.1364 -1.20102 -7.14513e-18)
(10.7963 -1.49436 -1.96128e-19)
(13.0508 6.23625 6.39778e-18)
(-0.471922 -0.871173 -6.94458e-18)
(10.31 0.30922 1.31263e-19)
(10.583 -1.48732 0)
(12.5619 -0.152326 -3.49964e-18)
(9.86776 0.923767 3.17665e-19)
(10.3711 -0.299547 3.07479e-18)
(10.145 0.218582 -1.58407e-19)
(5.39444 2.39765 0)
(9.9145 1.16976 2.07497e-18)
(11.0427 -0.225314 0)
(-4.17081 0.435738 -7.53633e-19)
(9.94998 0.907343 -8.66452e-18)
(10.4967 1.52721 3.92219e-19)
(10.5585 0.232821 2.18663e-19)
(12.4414 -0.719619 4.15022e-18)
(7.04878 0.0531888 -1.99024e-18)
(11.6248 0.572673 6.44794e-19)
(6.29323 4.07346 -1.91456e-18)
(8.27124 0.759185 5.71398e-18)
(12.7972 -0.0443302 -1.59192e-18)
(6.64047 -3.96017 6.31627e-18)
(10.6117 0.995743 1.9651e-18)
(10.7303 4.66777 1.79263e-18)
(10.4558 1.54614 1.40149e-19)
(11.7158 11.7313 -2.95768e-18)
(9.84275 0.424086 -4.65974e-18)
(8.68891 3.38673 6.59458e-18)
(8.90276 0.453601 3.19729e-18)
(10.5794 11.9081 8.92806e-18)
(10.9777 0.714808 1.21205e-18)
(10.3281 2.07323 -3.21439e-19)
(-2.358 0.930278 1.85857e-17)
(11.9319 0.576701 1.13235e-18)
(13.5709 1.53308 4.55685e-18)
(2.46789 1.55048 2.32884e-17)
(11.408 -2.59736 -1.04238e-18)
(10.4633 0.121626 3.23224e-18)
(5.8487 9.45047 -5.17583e-19)
(11.1046 1 5.27748e-19)
(-1.00416 -0.525685 -1.08138e-17)
(10.1684 0.196812 1.02652e-18)
(7.78416 -2.50941 1.47066e-18)
(11.8235 1.56566 6.95139e-18)
(5.31932 -2.95444 4.18716e-19)
(6.56732 0.51242 0)
(-0.337699 -2.49457 -1.87186e-18)
(11.3207 -0.778306 1.08371e-18)
(11.6946 -1.22716 -4.06391e-18)
(10.2728 -1.08974 0)
(7.96787 0.53508 0)
(-0.175007 -0.431499 -1.54891e-17)
(12.1997 0.0929957 2.21029e-18)
(12.3903 0.394186 0)
(9.99826 1.04631 -3.16736e-18)
(4.12138 0.73366 0)
(8.89578 5.07518 0)
(3.88892 -1.42452 3.9732e-19)
(10.7213 1.12364 1.38361e-19)
(5.94476 -3.74028 2.79299e-18)
(10.0832 0.48311 1.93493e-19)
(4.4588 0.603038 5.79109e-18)
(-1.04554 -0.0574554 1.41342e-17)
(10.7557 0.555149 -2.40381e-19)
(9.78515 0.859614 -6.57385e-18)
(10.0251 1.25623 2.61633e-18)
(9.99984 -6.55777 6.99265e-19)
(11.6122 -2.12863 1.0526e-17)
(10.6419 -6.74572 2.15855e-18)
(10.3673 -2.03847 -2.3285e-18)
(12.393 0.2083 2.23025e-18)
(-4.4159 1.149 -2.72261e-19)
(14.1787 0.875315 1.40167e-17)
(13.6021 0.247413 -5.87259e-18)
(8.36071 1.20342 8.38605e-18)
(8.36014 1.3164 9.56902e-18)
(9.64862 -0.203739 3.46641e-18)
(11.3392 0.360928 -1.90847e-18)
(12.6248 -0.215316 -1.47007e-18)
(12.081 -1.57608 -1.91538e-18)
(14.3461 -0.217856 2.48299e-18)
(10.6875 2.32747 1.15824e-19)
(12.9174 -2.14949 -2.19404e-18)
(9.88027 0.98535 0)
(12.4979 0.402221 2.42194e-18)
(10.4958 0.268268 -3.97676e-18)
(12.1045 -2.83377 2.34566e-19)
(12.7315 0.29783 -6.88676e-18)
(-0.970342 0.164508 0)
(9.93374 0.819185 -2.49128e-17)
(10.6713 3.35323 7.65591e-19)
(11.2988 -0.487128 5.93931e-19)
(9.83034 0.316986 0)
(10.1846 -1.87951 -1.3201e-18)
(10.0192 0.449775 -1.65139e-20)
(10.0827 0.467977 9.23263e-19)
(9.70986 1.08805 5.523e-20)
(10.5172 1.24604 -4.96446e-19)
(11.8114 1.29116 6.10472e-18)
(12.8735 0.259389 -1.25406e-17)
(5.62884 0.43451 0)
(10.3303 -0.131738 -1.20095e-18)
(10.2664 -0.0128266 -2.16875e-18)
(4.75196 -1.67675 0)
(11.4591 0.354123 7.14181e-18)
(3.7626 -6.8309 1.44139e-17)
(10.07 0.956243 -5.60063e-21)
(9.76668 -3.53219 -2.04454e-17)
(9.92975 0.897894 -8.15406e-19)
(13.7674 1.53059 -1.11175e-18)
(9.47931 0.0118724 -2.72499e-18)
(2.44263 -4.80128 -2.3244e-17)
(10.1546 0.00238107 0)
(11.2249 1.77543 0)
(9.25133 0.580591 2.3803e-18)
(14.6744 -1.56021 9.70469e-19)
(7.67545 -3.1777 0)
(-0.496755 -0.853132 2.69233e-18)
(4.28994 -1.25222 9.47671e-18)
(5.17531 2.78064 -8.62075e-19)
(11.8071 0.849072 -1.1013e-18)
(5.43872 -3.07883 5.00443e-20)
(12.6947 -1.49728 3.23348e-19)
(4.58925 -7.1408 0)
(9.77933 0.884261 6.92582e-19)
(9.80217 1.60636 0)
(8.12499 1.18644 -9.52945e-20)
(9.14091 -5.0679 -6.10789e-18)
(10.6187 0.62671 -4.84189e-21)
(9.99176 0.597092 5.90946e-18)
(9.42594 -0.142469 0)
(13.1312 -2.52737 -7.11806e-18)
(9.83903 2.46495 0)
(11.259 2.57389 -2.86157e-18)
(-1.03457 -0.552974 -3.12301e-18)
(14.0066 0.39087 -9.12838e-18)
(12.5318 0.172987 -1.79036e-18)
(10.4605 0.4339 -1.68352e-19)
(10.5986 0.944119 -1.09085e-18)
(9.6762 -1.78451 -9.09813e-18)
(9.72613 -1.23541 3.54335e-19)
(11.4999 -2.7996 4.54271e-19)
(9.90907 0.57178 -8.59374e-18)
(9.89753 0.70584 4.13912e-18)
(9.96659 0.665955 -5.71418e-18)
(11.7283 0.0436646 -7.00758e-19)
(9.2799 -1.94902 -5.4559e-18)
(11.3891 -1.34407 -2.35186e-18)
(8.71471 -2.82645 -9.94097e-19)
(9.90647 0.985457 4.01231e-18)
(12.445 0.293371 -3.93816e-18)
(10.546 0.678359 9.41631e-20)
(-0.214029 -0.507924 -1.15674e-16)
(11.9415 -0.820625 4.82937e-19)
(13.0459 4.7042 -2.39778e-19)
(9.11313 -2.00609 0)
(11.4963 0.315174 0)
(9.98326 0.611302 1.14607e-17)
(9.96688 0.646783 7.55116e-18)
(10.1534 1.4492 4.52775e-18)
(10.7678 1.98274 1.11704e-18)
(9.76021 0.717887 1.17213e-17)
(-1.2433 2.74168 -3.21244e-17)
(2.07476 0.00972228 -4.37303e-20)
(9.98372 0.51383 -1.30571e-17)
(-3.86581 0.96173 9.88762e-18)
(9.07945 -2.49837 0)
(9.35526 0.267699 0)
(10.7984 0.790059 0)
(9.36648 -0.836489 4.81266e-18)
(9.38585 3.76283 0)
(11.353 0.317214 4.81967e-18)
(12.8888 0.0517967 1.14666e-18)
(11.5991 3.37815 -2.24836e-18)
(7.5518 0.497626 6.73579e-18)
(11.6689 4.28111 3.27182e-18)
(13.4657 1.5154 4.11594e-18)
(9.98229 0.636739 -1.15047e-18)
(10.2779 0.991348 -2.59665e-19)
(8.37361 -0.71541 1.44435e-18)
(11.2893 0.716566 3.00167e-19)
(8.20472 -0.431306 -4.63266e-18)
(11.1234 -7.84934 -1.45643e-19)
(10.0816 1.11627 0)
(10.1862 -2.87791 8.09053e-18)
(12.1071 0.902708 6.70247e-19)
(10.4311 -0.19665 1.09182e-19)
(12.8343 4.10205 -9.36567e-18)
(7.30476 4.13823 5.8935e-18)
(7.66603 -0.134855 1.19902e-19)
(11.3748 1.51492 3.70675e-18)
(10.5002 0.557905 4.95848e-19)
(10.3368 3.9017 0)
(14.3052 -1.96229 3.80331e-18)
(12.1443 2.34499 -4.46129e-18)
(12.6151 2.13971 -7.07548e-18)
(13.1907 0.470633 4.19769e-19)
(8.00718 0.291887 -9.86788e-18)
(8.39741 1.45032 -4.29844e-18)
(-1.56506 3.87145 1.65084e-17)
(-0.659428 0.731836 3.4759e-18)
(-4.19585 1.01639 -8.65196e-18)
(4.95989 0.321201 9.05508e-19)
(11.1163 9.16097 1.57705e-18)
(11.3476 -3.92423 3.81101e-18)
(7.67821 1.18491 -3.29961e-18)
(13.2239 2.18719 2.74728e-18)
(9.80827 0.728795 9.64634e-18)
(11.6482 1.18184 1.08171e-17)
(10.044 1.19833 2.65535e-18)
(-1.37462 0.625232 1.85783e-18)
(7.03752 -0.0179097 3.30126e-19)
(-0.754718 -0.628139 -6.41714e-18)
(4.71999 0.532 3.21213e-18)
(13.547 2.26206 0)
(9.7424 1.64916 0)
(11.1293 0.322348 1.19149e-18)
(5.65766 -0.889842 2.1532e-18)
(9.72786 1.05968 -1.16294e-17)
(10.4661 0.10519 4.90942e-18)
(13.3571 3.47937 -1.87166e-19)
(6.22302 -1.24883 -1.70799e-18)
(-1.82938 0.531662 0)
(9.9861 1.12365 -5.23651e-18)
(13.5709 -0.713175 5.66726e-18)
(10.7661 0.6808 -1.1019e-19)
(9.62775 -2.47633 4.40247e-18)
(9.92943 0.864372 8.16968e-18)
(4.37146 -5.50287 5.72098e-18)
(12.565 2.66784 1.06877e-17)
(9.46597 4.06206 -9.69734e-19)
(9.93442 0.842084 2.31708e-18)
(1.13432 -0.0256776 -7.56167e-18)
(16.0656 -7.46841 0)
(8.99899 0.29429 4.0343e-18)
(12.258 -0.387201 3.86095e-18)
(10.5293 -1.06867 1.60159e-18)
(14.2059 1.60299 3.26577e-18)
(9.94031 0.864492 -6.06497e-20)
(13.7777 1.67257 -2.10244e-18)
(2.72063 -5.30957 8.17524e-19)
(2.79861 1.36495 -3.53759e-20)
(8.35248 -0.404275 1.42376e-17)
(11.1976 0.347092 1.16235e-17)
(10.0511 0.499699 -9.51415e-20)
(10.4523 -1.20936 0)
(13.289 -1.18209 -3.47542e-18)
(-0.480933 -0.681673 0)
(12.2714 2.19784 0)
(2.98671 -1.40901 4.20763e-18)
(10.9832 -0.128191 2.43949e-19)
(12.1292 0.80879 8.0709e-19)
(9.40537 1.24924 -1.23773e-17)
(11.0527 1.83818 -2.21345e-18)
(10.9037 -0.704072 2.94062e-19)
(-0.404932 -0.50228 -3.06484e-17)
(14.9797 1.67555 -9.13907e-18)
(10.4318 5.42875 2.19534e-18)
(9.11431 4.1371 -3.26766e-18)
(10.0727 1.45979 -4.77217e-18)
(13.7934 1.1028 7.47278e-18)
(1.17529 2.4279 2.13238e-18)
(9.93486 1.0118 -1.76913e-18)
(-0.740728 -0.61661 -1.82617e-18)
(8.74047 -0.561824 -5.51858e-19)
(9.87199 -3.44794 1.9423e-19)
(9.90714 0.714802 -1.3384e-18)
(10.86 -0.0912452 6.53823e-18)
(-1.2699 -1.67401 6.68042e-18)
(6.58976 -0.0184874 -5.24268e-18)
(10.4198 -0.0645093 0)
(11.8975 -2.71039 2.07002e-17)
(11.6721 -3.68667 -2.13147e-18)
(0.201018 0.441701 -2.25228e-19)
(8.14525 7.47775 -2.59956e-19)
(-0.683996 4.26801 -1.02298e-17)
(10.6579 1.30153 6.71853e-19)
(6.99999 -0.173889 -8.28836e-18)
(-0.545747 0.933359 -1.51276e-17)
(3.56668 1.86534 0)
(11.9202 5.26533 3.37755e-18)
(11.0979 1.28791 4.98833e-19)
(0.148832 0.128645 -1.25441e-17)
(9.18794 -0.358983 1.61049e-17)
(9.50716 -0.305689 2.94589e-18)
(8.17003 0.279351 1.99918e-17)
(10.3452 0.267494 9.05485e-18)
(-1.12047 3.46316 9.13113e-18)
(15.0894 -1.85466 3.80389e-18)
(12.3055 -2.62308 1.89868e-19)
(12.1083 1.42177 -7.13058e-20)
(9.78853 2.39557 1.61936e-18)
(-1.04159 -0.674404 -9.48304e-18)
(1.1045 0.209236 0)
(4.04329 -4.51243 3.12007e-17)
(3.09402 0.265529 -1.92838e-17)
(10.959 1.9425 -4.8752e-19)
(8.91286 1.60094 -1.16917e-17)
(12.8457 3.89772 0)
(7.84178 -0.076067 0)
(12.7026 -0.540384 -1.37266e-19)
(10.1055 -0.396695 -2.8042e-18)
(14.81 9.82872 1.75206e-17)
(12.7831 2.34636 3.98155e-19)
(12.259 0.117203 6.99163e-18)
(8.69845 5.48803 9.19826e-20)
(9.27671 -0.417353 -1.03344e-17)
(-0.375999 -0.851455 8.6514e-18)
(9.79992 -0.1334 0)
(4.95729 -3.74186 5.17613e-18)
(9.63017 0.248493 -1.18734e-17)
(10.2244 0.411639 1.45101e-18)
(-0.779596 3.33963 5.48177e-18)
(10.748 4.19679 2.18096e-18)
(10.4168 0.827821 3.07781e-20)
(11.9767 -3.07042 -1.94979e-18)
(13.8802 3.97385 5.19304e-18)
(11.703 0.772698 -7.96436e-19)
(9.92672 0.792378 4.12777e-18)
(6.158 2.17123 2.93759e-17)
(10.8985 1.2374 -6.24897e-20)
(9.92232 0.548646 -8.67535e-18)
(10.0812 0.445728 1.57011e-18)
(9.33508 -1.36001 1.92612e-18)
(7.90953 -5.11952 5.88731e-18)
(9.83965 0.903669 -5.04291e-18)
(9.91289 0.765816 1.57359e-17)
(13.3123 2.14007 0)
(8.24939 1.33549 -2.4465e-18)
(8.79822 -1.03574 1.01651e-18)
(-1.65683 0.989584 -1.21408e-17)
(12.5531 0.197561 -5.90086e-18)
(11.139 -0.509568 -2.54268e-18)
(11.92 -2.57776 1.74992e-18)
(12.8149 -1.72928 -1.96787e-18)
(10.368 0.0890378 2.24928e-18)
(10.5305 1.81137 9.1161e-20)
(11.7012 0.98286 0)
(6.4195 -1.85663 -1.04802e-17)
(10.2709 -0.0120257 0)
(12.6651 1.56673 3.09721e-19)
(10.1419 0.293638 0)
(10.6769 -0.049959 -1.47509e-18)
(4.36433 -4.75719 -1.86626e-17)
(11.1157 1.48527 3.17432e-20)
(10.3408 0.540994 -4.86306e-19)
(11.3337 -1.94287 5.29459e-19)
(11.9242 -3.44519 0)
(10.1639 0.169023 6.71207e-18)
(9.82831 -0.571967 2.24852e-19)
(10.0145 0.583274 -2.55927e-18)
(7.73886 3.55457 -3.39622e-18)
(9.9462 0.85056 7.03372e-18)
(9.55335 -0.85795 -3.14736e-18)
(10.2208 0.392239 -5.36824e-18)
(9.95832 0.87107 2.53745e-17)
(13.5937 1.83919 -2.52367e-18)
(12.3597 0.161865 -2.30505e-18)
(12.7478 2.18706 -1.48181e-19)
(9.13957 -1.36429 -4.00926e-18)
(10.0387 0.376647 0)
(-0.546151 -0.393291 5.4631e-18)
(10.5225 0.408191 1.01663e-18)
(10.1146 0.471647 -8.42314e-19)
(9.16927 1.2825 5.16438e-18)
(8.43187 1.98359 4.46935e-18)
(12.4022 3.53363 -4.16251e-18)
(10.2816 2.58866 3.72262e-19)
(10.3622 -0.739367 -3.83135e-18)
(12.6091 2.37905 3.80968e-21)
(12.3902 0.326016 6.12205e-18)
(10.8206 -5.83664 -2.35853e-18)
(9.07692 -0.883585 0)
(11.546 0.825978 5.12736e-20)
(10.3321 0.256047 -5.69061e-18)
(-4.68868 1.30629 -5.74648e-19)
(10.2677 1.94582 -5.19169e-20)
(-3.45894 1.51544 -3.06792e-18)
(11.7956 0.593262 -1.18201e-18)
(-0.659914 -0.597036 -6.07989e-20)
(8.45713 -1.47182 2.01402e-18)
(11.6036 1.94326 8.76693e-20)
(9.98627 0.631954 -2.66924e-18)
(10.015 -1.87821 0)
(11.9343 2.17002 6.13092e-19)
(7.83956 -3.25807 -8.60337e-19)
(9.95663 0.870464 -4.09143e-17)
(7.00248 -4.05194 8.71132e-18)
(1.55487 0.353851 -2.54033e-17)
(12.0823 2.72636 -2.267e-20)
(9.95501 0.887931 6.4019e-20)
(12.1765 -3.8868 -1.4357e-18)
(9.52679 2.10406 -3.87869e-18)
(10.2108 2.17493 -1.04185e-18)
(10.7247 -0.628931 -4.17549e-20)
(9.94264 1.55107 -4.19789e-18)
(8.97409 1.18599 1.19617e-17)
(10.1471 -0.283412 5.09215e-18)
(-3.36841 1.43578 2.04021e-19)
(10.1179 1.71977 -2.47158e-19)
(10.8682 -0.0415578 2.06445e-19)
(9.9917 1.51062 6.31205e-18)
(11.3016 -0.348691 0)
(10.2888 1.73997 6.66501e-18)
(10.5818 2.7136 1.15475e-20)
(12.7507 -0.263556 -3.39467e-18)
(10.3379 -2.67695 3.94202e-19)
(12.1733 1.83509 2.22583e-19)
(13.2277 -2.17835 -2.08929e-17)
(10.6448 -0.67525 4.63118e-18)
(-3.77309 1.45644 -5.55929e-18)
(10.1595 1.27138 1.79221e-18)
(10.2268 -0.0158794 1.07663e-18)
(14.4443 -2.36717 -4.04125e-18)
(11.0923 -0.445027 1.47443e-18)
(10.5042 0.465068 0)
(9.93438 0.748271 1.13712e-17)
(8.80808 -2.02243 0)
(9.91698 0.734921 -2.24564e-17)
(12.2331 1.41853 -1.18859e-19)
(11.5182 -0.0364333 1.20904e-19)
(4.61543 4.4509 2.05468e-18)
(11.88 -1.70145 2.70388e-18)
(12.0739 1.33772 1.04195e-18)
(1.59168 -2.29978 1.98636e-19)
(10.7004 0.980328 -2.1103e-19)
(12.509 -0.95943 7.95323e-18)
(9.98682 0.4224 -4.0056e-18)
(10.5536 0.266325 1.64226e-18)
(10.3843 -1.39913 1.93035e-18)
(10.7612 1.47685 0)
(8.08218 -3.58531 1.33533e-18)
(-2.09845 0.406638 -4.64388e-18)
(10.5607 0.287745 -1.52376e-18)
(8.32736 2.22938 1.54862e-17)
(5.22195 0.893611 7.26762e-18)
(12.0725 0.00529067 0)
(9.48856 1.10238 -1.75182e-18)
(0.251802 -3.06998 0)
(9.88961 0.730635 -2.26555e-18)
(9.65424 0.187603 7.09322e-18)
(8.20134 -2.53294 5.04858e-20)
(12.6011 -0.439483 0)
(9.76016 0.803208 8.57901e-18)
(9.75278 1.18817 -4.73959e-18)
(11.6612 0.829762 -1.14174e-18)